# vtk DataFile Version 4.2
vtk output
ASCII
DATASET POLYDATA
POINTS 3687 float
-31.063 20.3574 -6.25279 -31.0155 20.1558 -6.27444 -31.2692 20.1551 -6.25804 
-32.4492 20.3664 -5.85041 -32.3427 20.1535 -5.90001 -32.4692 20.1551 -5.84364 
-32.0575 20.3624 -6.01992 -31.8875 20.8093 -6.09694 -31.6648 20.3623 -6.16298 
-31.8526 20.308 -6.10242 -31.6605 21.0393 -6.16691 -31.4758 20.3674 -6.20326 
-31.2727 20.9161 -6.24 -31.2642 20.3902 -6.23603 -30.8858 20.3454 -6.24925 
-33.8527 20.3563 -5.07349 -33.6692 20.1551 -5.17744 -33.8594 20.1549 -5.06968 
-33.333 20.3441 -5.36466 -33.2692 20.1566 -5.40493 -32.8627 20.153 -5.65331 
-32.7777 20.3562 -5.68571 -32.6692 20.1551 -5.75052 -32.0922 20.841 -6.02493 
-31.4742 21.019 -6.20647 -30.8612 20.9153 -6.25251 -30.5244 20.6944 -6.21336 
-30.5333 20.3506 -6.20879 -30.2881 20.3838 -6.16711 -34.0869 20.3551 -4.90468 
-34.0815 20.1579 -4.90547 -32.4616 20.9481 -5.87375 -32.0046 21.2961 -6.06946 
-31.4695 21.7237 -6.20011 -31.2806 21.5215 -6.21837 -31.0713 20.9782 -6.25282 
-30.2607 20.8251 -6.16465 -30.0311 20.617 -6.10352 -30.083 20.2669 -6.09969 
-29.8692 20.3551 -5.99967 -29.8692 20.1551 -6.02018 -34.13 20.7093 -4.9296 
-33.5466 20.5976 -5.27106 -33.248 20.561 -5.44014 -33.0688 20.3556 -5.50973 
-33.1165 20.8642 -5.52596 -32.8369 20.8429 -5.69434 -32.3667 21.4915 -5.93503 
-32.011 21.7196 -6.06756 -31.6683 21.7384 -6.16829 -30.8389 21.3208 -6.23862 
-30.6773 21.0095 -6.23934 -30.4693 21.0541 -6.21162 -29.8692 20.6835 -6.03239 
-29.7222 20.3589 -5.89264 -29.6828 20.1547 -5.8921 -34.3541 20.3531 -4.69211 
-33.87 20.5567 -5.08737 -32.7468 21.2234 -5.74433 -32.4441 21.2753 -5.89448 
-31.6685 21.9983 -6.20008 -31.1435 21.7518 -6.24737 -31.0663 21.5119 -6.23195 
-30.2374 21.3442 -6.16818 -30.0713 21.1462 -6.11265 -29.8692 20.9551 -6.03754 
-29.3899 20.3557 -5.55233 -34.6173 20.5957 -4.53932 -33.868 20.8275 -5.10116 
-33.194 21.1636 -5.50212 -32.6628 21.5738 -5.81951 -32.6152 21.954 -5.85128 
-32.0072 21.9516 -6.08009 -31.4692 21.9551 -6.23668 -30.8692 21.5551 -6.23646 
-30.583 21.3546 -6.22387 -29.6685 20.7814 -5.89864 -29.4621 20.7453 -5.6972 
-34.6665 20.3661 -4.47437 -34.2477 21.0427 -4.8848 -34.0761 21.0115 -4.99829 
-33.8527 21.4102 -5.13753 -33.6555 21.4245 -5.25943 -31.9247 22.1548 -6.14466 
-31.3825 22.3222 -6.34378 -31.1396 22.1407 -6.32672 -30.1113 21.5703 -6.17045 
-29.9802 21.3544 -6.09555 -29.8692 21.1551 -6.03055 -29.6545 20.9551 -5.8992 
-29.2662 20.7142 -5.5073 -29.0903 20.1515 -5.27079 -29.2875 20.1527 -5.47909 
-34.4692 20.1551 -4.61409 -34.8751 20.5573 -4.32914 -34.6608 20.9817 -4.55568 
-33.2918 21.5987 -5.48622 -33.0018 21.9385 -5.64932 -32.6349 22.1672 -5.86346 
-32.2692 22.1551 -6.01097 -31.8692 22.3551 -6.21973 -31.6303 22.4266 -6.3189 
-30.8709 22.018 -6.3149 -30.7761 21.754 -6.26141 -30.5918 21.5585 -6.2272 
-29.6428 21.155 -5.90946 -29.4547 20.9539 -5.72986 -29.2349 20.957 -5.55273 
-29.087 20.3541 -5.2535 -28.9476 20.1551 -5.0992 -34.8939 20.3562 -4.31329 
-34.8996 20.1581 -4.34273 -34.9016 20.9915 -4.35815 -34.5453 21.3821 -4.67326 
-34.0756 21.5141 -5.01044 -33.9802 21.835 -5.07321 -33.6656 21.8759 -5.28808 
-33.0045 22.1544 -5.67166 -32.2547 22.3742 -6.07722 -31.4647 22.7065 -6.46431 
-30.8548 22.3976 -6.43468 -30.3104 21.7432 -6.23806 -29.8668 21.604 -6.10969 
-29.57 21.3454 -5.91412 -29.4692 21.1551 -5.79601 -29.0321 20.9681 -5.37367 
-29.0675 20.7363 -5.31831 -28.9448 20.3463 -5.08663 -35.083 20.3626 -4.15249 
-35.2118 20.496 -4.05307 -34.7645 21.4835 -4.50955 -34.2552 21.5259 -4.89241 
-33.3902 21.9566 -5.4481 -33.3709 22.1499 -5.4732 -32.9115 22.3611 -5.76939 
-32.56 22.3669 -5.9431 -31.9136 22.5858 -6.28279 -31.7017 22.8703 -6.46221 
-31.2515 22.6454 -6.47794 -30.6666 22.2228 -6.38593 -30.5873 21.9492 -6.30382 
-30.0501 22.2167 -6.31571 -29.855 21.9846 -6.21704 -29.6476 21.6178 -6.03768 
-29.2863 21.147 -5.66293 -29.0691 21.1627 -5.49666 -35.4111 20.6966 -3.92697 
-34.8059 21.7727 -4.48434 -34.3026 21.7708 -4.86151 -33.9655 22.1355 -5.12147 
-33.3325 22.3584 -5.53777 -32.4564 22.6516 -6.09229 -31.5229 23.1537 -6.57236 
-31.3099 23.1334 -6.60773 -31.0788 22.6035 -6.48356 -30.6577 22.8769 -6.58015 
-30.3931 22.1088 -6.33271 -29.4622 21.4532 -5.8943 -29.2626 21.3362 -5.71973 
-28.8628 21.139 -5.30263 -28.8722 20.7854 -5.09723 -28.783 20.5551 -4.89921 
-28.8535 20.3548 -4.95325 -35.1476 20.1551 -4.0992 -35.4644 20.1645 -3.85168 
-35.2253 20.9462 -4.10202 -35.057 21.4335 -4.2556 -34.2773 22.0377 -4.89429 
-33.9193 22.3771 -5.18852 -33.2296 22.5362 -5.66077 -32.8435 22.5554 -5.87437 
-32.2552 22.951 -6.29424 -31.8691 22.9551 -6.43317 -31.9432 23.1256 -6.45319 
-30.8829 23.1232 -6.65381 -30.4998 22.6456 -6.5042 -30.2722 22.5633 -6.45905 
-29.6745 22.3087 -6.27105 -29.4787 21.7781 -6.02574 -29.2752 21.6105 -5.86035 
-29.0617 21.3946 -5.61479 -28.8979 21.3602 -5.48215 -28.8589 20.9653 -5.18317 
-28.7417 20.7551 -4.89921 -28.6949 20.3458 -4.68636 -28.6227 20.5551 -4.4992 
-28.614 20.3551 -4.4992 -35.2692 20.1551 -3.99391 -35.8445 20.4369 -3.57972 
-35.4863 20.9697 -3.89121 -35.0776 21.8892 -4.28443 -34.5649 21.9879 -4.6986 
-34.4107 22.3288 -4.86463 -33.692 22.5535 -5.38688 -33.0136 22.7659 -5.87368 
-32.4959 22.9513 -6.19215 -32.0035 23.4939 -6.50778 -31.4761 23.4303 -6.64381 
-31.0649 23.2123 -6.66403 -30.6813 23.2 -6.66987 -30.4914 23.122 -6.63629 
-29.9318 22.5742 -6.40175 -28.6691 21.351 -5.30205 -28.6694 21.1542 -5.13306 
-28.6628 20.7595 -4.75238 -28.6808 20.6351 -4.70427 -28.4936 20.5555 -4.27076 
-28.4754 20.3542 -4.23195 -35.6468 20.1246 -3.71105 -35.6765 20.7592 -3.72514 
-35.2485 21.3517 -4.09529 -34.5934 22.1354 -4.70253 -34.2432 22.5547 -5.04133 
-33.6113 22.7574 -5.52556 -32.4423 23.1731 -6.28375 -32.2796 23.5211 -6.41502 
-31.6856 23.6687 -6.6417 -31.2698 23.3815 -6.67215 -30.8687 23.4699 -6.72332 
-30.1669 22.8887 -6.52745 -29.6823 22.9312 -6.42794 -29.4745 22.4594 -6.25463 
-29.2487 22.0274 -6.02462 -28.7331 21.7654 -5.6365 -28.6727 21.5424 -5.45437 
-28.6749 20.9379 -4.92622 -28.574 20.7551 -4.4992 -28.3952 20.5551 -4.0992 
-28.3694 20.3551 -3.89921 -28.2562 20.5783 -3.82675 -28.283 20.3579 -3.62637 
-35.87 20.1556 -3.51817 -35.9594 20.7712 -3.5033 -35.7682 20.9705 -3.67119 
-35.5669 21.3347 -3.84482 -35.3279 21.9594 -4.10814 -35.0953 22.1438 -4.32683 
-34.668 22.3863 -4.69637 -34.0295 22.8826 -5.3148 -33.8075 23.0462 -5.52299 
-33.2473 22.8395 -5.7635 -32.8122 23.1719 -6.11677 -32.2199 23.7505 -6.48062 
-31.8658 23.87 -6.62115 -31.4815 23.9447 -6.73598 -31.1368 23.7628 -6.7563 
-30.6692 23.5551 -6.72752 -30.4523 23.5532 -6.70297 -30.1006 23.1446 -6.57026 
-29.8789 22.8855 -6.47251 -28.8931 22.0489 -5.86721 -28.4707 21.3363 -5.12313 
-28.4626 21.1585 -4.92392 -28.4779 20.956 -4.65749 -28.4712 20.7506 -4.31518 
-28.0898 20.5755 -3.49004 -36.2477 20.155 -3.20729 -36.0289 20.4289 -3.43432 
-35.5366 21.6999 -3.90784 -34.9144 22.3068 -4.50731 -34.5485 22.6534 -4.87019 
-34.4817 23.0253 -5.07673 -33.477 23.0832 -5.73169 -33.2107 23.156 -5.91071 
-32.6866 23.4794 -6.23902 -31.6613 23.9885 -6.70096 -30.8692 23.7551 -6.76557 
-30.6692 23.7551 -6.74388 -30.2692 23.3551 -6.64281 -29.8583 23.1543 -6.51724 
-29.2805 22.7549 -6.25369 -29.0785 22.3103 -6.04909 -28.6717 21.955 -5.69383 
-28.4095 21.7642 -5.40772 -28.1949 21.5522 -5.09018 -28.2714 20.7578 -4.0779 
-28.0672 20.7462 -3.72288 -28.2109 20.3534 -3.45696 -36.6684 20.4914 -2.84972 
-36.4885 20.1541 -2.96081 -36.8423 20.1632 -2.63298 -36.445 20.3939 -3.04929 
-36.2223 20.676 -3.27229 -36.049 21.3068 -3.46013 -35.8274 21.6897 -3.66847 
-35.6281 21.9626 -3.87965 -35.3027 22.198 -4.1876 -34.7819 22.6235 -4.7025 
-33.6559 23.1593 -5.65668 -33.0362 23.3619 -6.05615 -32.683 23.7356 -6.27241 
-32.2479 24.1123 -6.50595 -31.8692 24.1551 -6.64382 -31.4469 24.1896 -6.71917 
-31.2692 23.9551 -6.75913 -31.0692 23.9551 -6.76598 -30.4835 23.7517 -6.70138 
-30.2692 23.5551 -6.66212 -30.0692 23.3551 -6.59913 -29.6692 23.1551 -6.45798 
-29.4692 22.9551 -6.35585 -29.2692 22.5551 -6.19869 -28.6937 22.3524 -5.86903 
-28.4944 22.153 -5.6638 -28.3005 21.9521 -5.43814 -28.2199 21.3406 -4.90718 
-28.2544 21.1278 -4.65842 -28.2959 20.9911 -4.47268 -28.2692 20.9071 -4.2992 
-28.161 20.7551 -3.89921 -27.862 20.7699 -3.45472 -28.0289 20.5184 -3.34841 
-37.0793 20.4552 -2.36851 -37.0748 20.1534 -2.35476 -36.8397 20.5219 -2.67955 
-36.2279 21.1815 -3.29778 -35.4989 22.5545 -4.15058 -35.0862 22.6405 -4.49994 
-34.6646 23.0446 -4.95635 -34.1094 23.3552 -5.42261 -33.7067 23.3385 -5.67257 
-33.3565 23.3096 -5.86825 -33.0481 23.5395 -6.07365 -32.4444 24.1183 -6.42179 
-32.0692 24.1551 -6.57166 -31.6693 24.1564 -6.69929 -31.255 24.1594 -6.70403 
-30.8692 23.9551 -6.73881 -30.7193 23.9469 -6.69636 -30.0692 23.5551 -6.58633 
-29.8362 23.3557 -6.52017 -29.4692 23.1551 -6.35511 -29.2815 22.9547 -6.27443 
-29.0017 22.7525 -6.10608 -29.0421 22.5522 -6.10339 -28.0849 21.9571 -5.27821 
-28.0421 21.737 -5.10329 -28.0296 21.5315 -4.94265 -27.8692 20.9727 -3.89921 
-27.9394 20.3595 -2.96516 -37.2947 20.1487 -2.01744 -36.8809 20.8965 -2.65282 
-36.4321 20.7949 -3.09251 -36.2493 21.4929 -3.32099 -36.1627 21.7686 -3.42554 
-35.9776 21.9541 -3.60395 -35.6628 22.1904 -3.90057 -35.6446 22.343 -3.96069 
-35.0597 23.1016 -4.7089 -34.8901 23.164 -4.85442 -34.6288 23.4019 -5.09425 
-33.45 23.5632 -5.86482 -33.0771 24.0606 -6.10775 -32.683 24.3135 -6.31279 
-32.4692 24.3551 -6.41558 -32.0692 24.3551 -6.55963 -31.8692 24.3551 -6.60382 
-31.6692 24.3551 -6.61229 -31.3302 24.3552 -6.49397 -31.0791 24.1289 -6.69392 
-30.8692 24.0222 -6.6992 -30.4372 23.945 -6.52261 -30.2692 23.7551 -6.60109 
-29.9159 23.5498 -6.49971 -29.6692 23.3551 -6.4277 -29.4747 23.2958 -6.29842 
-29.3929 23.1551 -6.2992 -28.8692 22.5551 -6.01719 -28.4697 22.355 -5.69612 
-28.2692 22.1551 -5.4985 -28.0692 22.055 -5.2992 -28.0148 21.3365 -4.71176 
-27.874 21.1649 -4.28393 -27.4401 21.1348 -3.56324 -27.8692 20.5769 -3.09921 
-37.3584 20.3309 -1.9538 -36.6387 20.9364 -2.90663 -36.493 21.2778 -3.08729 
-35.9145 22.1365 -3.70796 -35.8853 22.4285 -3.83911 -35.2281 22.8717 -4.50051 
[...]
CELL_DATA 7248
FIELD FieldData 1
Area 1 7248 double
0.025767855688 0.014652920002 0.045203208902 0.050398874366 0.065403756496 0.056404272361 0.023890349903 0.017706848366 0.022012467131 
0.043192151553 0.021932945083 0.023313471453 0.10215269031 0.054432479605 0.07980511879 0.06207422339 0.066675671892 0.052950178062 
0.05066526316 0.06099094938 0.042630577725 0.027229338173 0.029072948956 0.058645188548 0.037630251637 0.1160658969 0.05145857035 
0.07162361863 0.06714892086 0.061303863009 0.062888924109 0.064963572048 0.099293246296 0.05738315663 0.04067833391 0.023334148183 
0.05156342587 0.07441193374 0.032279860778 0.0867662456 0.089884882148 0.12118688137 0.11448444405 0.050935328616 0.074877564349 
0.070300792435 0.067320163661 0.061401238985 0.043325865973 0.036343195967 0.044677343478 0.05524722678 0.02951618253 0.039541835017 
0.018225076848 0.023220937987 0.061005039855 0.030096099656 0.03764380758 0.039467717573 0.045155456332 0.079166992333 0.07375004123 
0.011654078643 0.097451117127 0.081136831418 0.12491022657 0.026383069381 0.036014395093 0.057346093929 0.061204183089 0.036309896957 
0.036504788902 0.058025985934 0.058570331109 0.02408602195 0.029996010497 0.048974533369 0.093916175635 0.04187896287 0.050221897905 
0.054905658139 0.04812621565 0.093667299558 0.05467262581 0.037968224431 0.11767132737 0.041410960366 0.046764246562 0.023878146903 
0.03850165009 0.025481658558 0.023752717032 0.04265028911 0.034077074074 0.052013864787 0.047551981346 0.053159478566 0.032898135294 
0.049136180731 0.093145512186 0.044474165907 0.11154666612 0.042691568458 0.10956934596 0.22034532965 0.067811221668 0.086086835579 
0.056613333054 0.062743149115 0.075447551103 0.034727692083 0.040533247339 0.065802808193 0.025365086947 0.030546068429 0.040406147779 
0.027372325512 0.0218144898 0.022209036676 0.061838168318 0.051308137738 0.029252735315 0.03860784463 0.036810228455 0.10323328876 
0.032501376781 0.070479362929 0.09669354059 0.10159663735 0.15412397854 0.082482463776 0.069491010911 0.037986114027 0.033097754057 
0.058021866188 0.054632296731 0.053616241171 0.036666480848 0.0283169852 0.049379644102 0.03000364516 0.022392717663 0.025691229903 
0.025609789991 0.022784934844 0.030054858619 0.033815239403 0.077251304029 0.04318295642 0.022602718824 0.027932868385 0.027894005461 
0.072557639119 0.060330427194 0.10090692188 0.051815814233 0.064828064077 0.050283875152 0.096415862169 0.12513014082 0.047255325246 
0.044659898482 0.039071397486 0.041812570883 0.043192656886 0.054037081068 0.047467603242 0.059627029216 0.054679712561 0.049749609625 
0.027724470583 0.044318820807 0.030098137826 0.044245004637 0.024932686901 0.020788490422 0.026854159926 0.029774187058 0.033702733073 
0.053393235602 0.02101787772 0.024766159633 0.043013333621 0.094980855069 0.077748656876 0.063134904797 0.087975256503 0.051932381239 
0.047099782354 0.086016004364 0.061262822327 0.077366756507 0.045174824646 0.043191081579 0.040981104294 0.037512773479 0.049640441653 
0.032069863428 0.05122716317 0.041202744116 0.086101603036 0.038936933046 0.034911719451 0.044953326619 0.072180188161 0.050049437436 
0.028658726445 0.063266114634 0.020245280584 0.023119440235 0.028026980211 0.028446811777 0.033129495361 0.042220385553 0.016085566123 
0.10206282921 0.041137089929 0.068741836211 0.048593125348 0.035157019793 0.056757012576 0.029678460105 0.042651525979 0.044011400692 
0.050429948929 0.039568310562 0.049498946912 0.077323056236 0.064132220932 0.050777539915 0.052718652798 0.014063619345 0.065032905769 
0.037789757573 0.048078220442 0.069426000744 0.073770343557 0.045733330926 0.021868572664 0.018521988252 0.022393677238 0.027918208417 
0.02778448169 0.035889146456 0.064430708163 0.015981167568 0.022459407445 0.07150986441 0.045985236185 0.10648620183 0.090917734479 
0.049050828532 0.056313979952 0.092208411962 0.072822523663 0.044762363749 0.039812650772 0.058236311802 0.10113894609 0.036835186304 
0.060373636641 0.0495037536 0.042677288419 0.082048341067 0.08176067833 0.054985027323 0.034231131184 0.043426509296 0.075693003682 
0.055300236739 0.052278727892 0.0346587768 0.037800173357 0.02276651708 0.03493002449 0.033222611431 0.024379113864 0.0246664339 
0.053150144474 0.022518394116 0.031879055945 0.020421590583 0.027434438879 0.041596036912 0.13643220882 0.044977469199 0.095500047217 
0.077152459944 0.068481309285 0.050280067502 0.063215738965 0.083734843887 0.065680993521 0.051147377495 0.043790759632 0.057114598654 
0.041610201068 0.079918259859 0.011939804792 0.08246947507 0.031195312222 0.07780222503 0.058580570726 0.034752154992 0.040143365833 
0.07055086093 0.059427301963 0.063737066098 0.065571309735 0.087960026976 0.035969297578 0.033520957104 0.036116320944 0.02543400175 
0.036022897896 0.025568834721 0.021520427303 0.016898995069 0.032312660184 0.030375846366 0.026258333164 0.030273278725 0.040724301908 
0.060728656821 0.043064409208 0.067787791103 0.051567336074 0.056989361922 0.055240522379 0.045505403457 0.048225325594 0.069840328568 
0.059589795383 0.059827250976 0.05117033688 0.095475443207 0.030163052717 0.047233013445 0.044863060212 0.054102716146 0.10256658177 
0.036408164 0.027723439939 0.02992358801 0.032828337877 0.035089070607 0.030910748412 0.081951119836 0.042829199561 0.057552196871 
0.083845480009 0.075137609679 0.052714677842 0.096538783943 0.025908079637 0.032317363782 0.030859304545 0.0375668444 0.031172665884 
0.016350381449 0.015711131186 0.022486767858 0.026817894967 0.019893316574 0.035570856183 0.03410019119 0.04263248303 0.059303276526 
0.037807648503 0.074782416418 0.091424881711 0.084539932283 0.026419732346 0.037100633358 0.062907647006 0.11355776031 0.039954629531 
0.067641276974 0.042399200448 0.10094958973 0.04664775503 0.09822729143 0.035024478768 0.050904675022 0.055314739321 0.054636782219 
0.05146241758 0.064407646913 0.035399942853 0.043285366835 0.051168267354 0.047175139202 0.031663190943 0.066925529884 0.087107455052 
0.087330870894 0.11143643818 0.064835285489 0.028887445256 0.030507271346 0.038901337363 0.034712573474 0.017173334204 0.020962667398 
0.019725542131 0.034407692157 0.046303378404 0.069197166624 0.039819451528 0.037430050249 0.065269257886 0.073714190213 0.094981369001 
0.03993985987 0.07388244076 0.026078455962 0.041971370509 0.048317500788 0.05266814181 0.11288157318 0.080392165395 0.062853287515 
0.065376268525 0.047131350319 0.092963796848 0.063461012768 0.07399222803 0.049837829299 0.062449139417 0.032994768576 0.030470098944 
0.079773860415 0.038597152179 0.020013043133 0.039285100468 0.044410325462 0.044561363064 0.038466664224 0.027314750987 0.082417354615 
0.077202025353 0.056312448793 0.029914138896 0.049522571862 0.076495513979 0.0330189916 0.045492513159 0.032870795887 0.026979251754 
0.033544945792 0.033857790333 0.039323278649 0.023469757166 0.081009988653 0.041611086926 0.031325770519 0.055257096696 0.077811680755 
0.10865396509 0.068677697868 0.049801494732 0.032253716713 0.027868542647 0.041988601717 0.036880405676 0.077717168822 0.066323024039 
0.019457450155 0.049601911633 0.045768660499 0.051835141811 0.065317382516 0.070251998672 0.03111250063 0.023195899204 0.02129226975 
0.026019572638 0.028993296305 0.019108171267 0.021643964445 0.018844824574 0.021833360932 0.033825098578 0.022416949922 0.025384471022 
0.023218192488 0.038337076819 0.063415589518 0.03748412068 0.046589930727 0.041111838716 0.075105345792 0.043583431439 0.038265672889 
0.043129704168 0.043706905381 0.032629414627 0.022369925713 0.021160466286 0.040983099741 0.020365405774 0.05472026496 0.04399684716 
0.040791124582 0.072311701789 0.074549822239 0.087961425747 0.070776165583 0.11408845373 0.050396226447 0.046017023144 0.10221321903 
0.061934153039 0.060254946305 0.044903080605 0.1324117592 0.020364549606 0.029393533004 0.030867158216 0.033116910725 0.035456557811 
0.051763609057 0.095585747374 0.038785650105 0.031673105799 0.030396354232 0.017419419069 0.018886199014 0.024140989896 0.022596110134 
0.019251710581 0.020360893152 0.02000616618 0.019014472281 0.018660851088 0.021474543122 0.020511196661 0.026285778558 0.0248956136 
0.019970471462 0.025444971071 0.022495370492 0.02053354656 0.032201518318 0.030842033682 0.053017562786 0.062429416582 0.048017304349 
0.027764961968 0.052330829883 0.028127574666 0.045168500295 0.028633795007 0.024779186987 0.065280406402 0.034810625683 0.034088675238 
0.059025743876 0.024476977128 0.054755100408 0.060794712168 0.069339543938 0.044503017668 0.062046270608 0.057766692533 0.07064804693 
0.03786401498 0.091547682329 0.060278254875 0.053224324861 0.062158237766 0.10031111882 0.090291645303 0.069429573746 0.041485145907 
0.11663647711 0.07276326198 0.036264140074 0.049937892676 0.040484879889 0.1096700095 0.077690037164 0.025223092776 0.019161836012 
0.021635452183 0.022381745179 0.024365806963 0.027611513731 0.018904642839 0.018808490625 0.0078482795882 0.015743417174 0.038510149085 
0.024501296421 0.022240781474 0.017657385096 0.024528564704 0.019259224679 0.016904658399 0.0094590594541 0.020601444373 0.031631583177 
0.024814393222 0.020570562938 0.029146809053 0.029878995248 0.013602935942 0.056706445873 0.024872416696 0.035193872879 0.041534814723 
0.057762390409 0.045733483366 0.099346080838 0.12537856823 0.047695911097 0.039674916181 0.05123499217 0.075157968904 0.076876173526 
0.066182583525 0.079502737425 0.052872296722 0.046121281805 0.049045652162 0.041215682991 0.036993372007 0.035899294043 0.040495049184 
0.071713891401 0.045569329468 0.063622822243 0.051830258799 0.064412164589 0.051808337621 0.04337022565 0.048323089863 0.044985355514 
0.12461900049 0.070861900026 0.053055688401 0.028612571316 0.026403327005 0.025282200251 0.020517901757 0.020413540007 0.021787109886 
0.016455049645 0.036317554929 0.020478802982 0.019540086094 0.0060561409339 0.047920682277 0.028237830398 0.019890865187 0.01733364412 
0.019271764469 0.024047458034 0.0070461485817 0.024279302755 0.026260912291 0.019398673543 0.024179548861 0.028825931466 0.028356362692 
0.028135354616 0.029295616289 0.015527332734 0.035953273868 0.030903587023 0.030472405032 0.03517698065 0.070327284956 0.049313926672 
0.07929753303 0.11187920036 0.048710844661 0.02146935059 0.036063581391 0.10060821693 0.062276238511 0.078885041325 0.063920174023 
0.046506335688 0.061036140563 0.045549726286 0.047175318139 0.045663151013 0.023335171876 0.12963022487 0.047980801622 0.048100784989 
0.06530713018 0.11171798969 0.078269075976 0.057682741339 0.055772457711 0.037449270568 0.035888406643 0.066699043741 0.03080547112 
0.024165353307 0.022537933227 0.018333872249 0.017199216435 0.014815928233 0.014992588502 0.014603178518 0.030043010703 0.028857963713 
0.028405585618 0.029397466185 0.036161160826 0.013636415917 0.014532873406 0.039192845337 0.033245846083 0.02944347335 0.018110977528 
0.028121843275 0.030819318225 0.016035168926 0.016748507444 0.023765780675 0.024406867257 0.028508565415 0.029411643372 0.020832047644 
0.028670214224 0.029123084159 0.032308120047 0.027584006432 0.037602480172 0.041439328922 0.064676775135 0.10567061636 0.043042545985 
0.050190471452 0.054970285922 0.041805980554 0.097361271969 0.05939471974 0.052027045635 0.055736293601 0.077823818444 0.090096838224 
0.04960045218 0.034100600079 0.044862007379 0.06240877698 0.068593454285 0.040757946055 0.042928519618 0.029307037424 0.040968198252 
0.062458437219 0.075343335094 0.089565524897 0.067964378902 0.043760843065 0.054364024454 0.068066681332 0.064505718506 0.048665590705 
0.035338822448 0.054355886624 0.044262529573 0.020838014953 0.021017284051 0.017855982981 0.017058880534 0.030013695313 0.050731676242 
0.027335211124 0.021742974648 0.033604812082 0.020806618621 0.02355020028 0.045700327047 0.0217680631 0.026469423062 0.041423759561 
0.033271125552 0.051869480336 0.029513342757 0.029648152714 0.043612532706 0.027153365394 0.014343815625 0.026228975172 0.010498952553 
0.033276966357 0.020412739334 0.01720162371 0.019998642565 0.020532192914 0.037025993241 0.032908589065 0.035175518105 0.039973812429 
0.019894100309 0.048303722141 0.079309568513 0.066801526709 0.13267751289 0.065207287461 0.033416525589 0.1110997507 0.046562265297 
0.042223964045 0.042580577381 0.081637897996 0.036706178316 0.048049150448 0.033958217852 0.016659723781 0.036751139037 0.027925827982 
0.048912040846 0.061879986451 0.065778915233 0.10856523997 0.038854425333 0.041690423796 0.052291686561 0.084400301967 0.071793440642 
0.05785507294 0.043308795164 0.060995516352 0.073787112589 0.07406672658 0.080121224335 0.05659561096 0.022130281998 0.031371640702 
0.012138069735 0.021308809753 0.024374726061 0.021530947821 0.021584665541 0.037407556057 0.044503992191 0.020383333665 0.023034639104 
0.029939733355 0.018148990679 0.024698492057 0.019008645414 0.014184249228 0.031668665368 0.027659103968 0.026946715146 0.03257909479 
0.024907609272 0.040621085011 0.028090451051 0.016095895108 0.024795055196 0.02711612376 0.016603899975 0.019492726236 0.016756400615 
0.018571438576 0.022977454915 0.023384265721 0.031057080491 0.035463892532 0.043593003097 0.03754191708 0.012400492424 0.037801641757 
0.020103002972 0.039503992655 0.077273842081 0.094364783265 0.04104563478 0.038498865051 0.014167426787 0.040666333806 0.078220678121 
0.041423277883 0.04815924446 0.044532448433 0.068083843498 0.04861615184 0.065014535123 0.032596732695 0.040118451232 0.031484100608 
0.017178027266 0.028177021913 0.12761940715 0.060368787647 0.06394924559 0.074464255121 0.039943479497 0.066603323856 0.084062044872 
0.045957716249 0.069139109451 0.042102161329 0.091542406601 0.04757322023 0.070895900156 0.0617234021 0.077783574865 0.063340820557 
0.026670149444 0.022645531338 0.020545183557 0.01833483451 0.020322862668 0.019743300392 0.021131498358 0.02393005709 0.045333661943 
0.024399158934 0.033314943535 0.032227430509 0.021353350293 0.024787857958 0.03470523439 0.020069785526 0.032856038852 0.012599336787 
0.029069945237 0.030351115587 0.024218059329 0.027108344766 0.028367994924 0.03054474914 0.018108305489 0.027202044359 0.031747469823 
0.021683621646 0.039831657418 0.033110014654 0.024334901082 0.015384748834 0.023479947731 0.029011851402 0.020896694503 0.022366217087 
0.034506346113 0.040318076653 0.054475231638 0.017856369759 0.018594922778 0.032148532897 0.052511058133 0.12452423106 0.01939215688 
0.030982333573 0.011383106657 0.038013702493 0.03313576982 0.066599082799 0.023690922766 0.053580040329 0.039576572915 0.037047579365 
0.030153616825 0.051257770486 0.035046235045 0.032514902941 0.040571947782 0.056227485532 0.047718868644 0.050988142216 0.051606267033 
0.060508248393 0.062847438564 0.09774595351 0.11104811904 0.044574876396 0.079923662165 0.06876678357 0.14401488005 0.068207663809 
0.044852306415 0.059464893149 0.10067171598 0.059175464725 0.062026980612 0.021969605558 0.024107721808 0.010215843493 0.016183838925 
0.016247128939 0.021914390543 0.021137794554 0.020749931133 0.031460746055 0.021808634941 0.024009221031 0.022385855444 0.022560886032 
0.035825621231 0.021764067434 0.02257890371 0.021438255428 0.015213149029 0.037575954427 0.032312651534 0.031516003326 0.062246702053 
0.016487904864 0.024068654891 0.032251990302 0.01583460719 0.0256079774 0.01548821367 0.052266193165 0.05023782934 0.026223416416 
0.033393812982 0.027381502573 0.027784486149 0.02134189858 0.029709870725 0.038054135026 0.042864943612 0.017057304374 0.032652545626 
0.034019247647 0.025248972397 0.056370082679 0.047517173855 0.084023747285 0.023285736437 0.024796115971 0.032944174085 0.10841564683 
0.042258128961 0.048687186243 0.049341403005 0.05956007751 0.045047711327 0.031385583556 0.038909190428 0.055107124081 0.054708664148 
0.035363831394 0.032130485635 0.086422044132 0.034490818482 0.10649069821 0.16381838656 0.091526645317 0.074270780108 0.071479886472 
0.048707004415 0.047846357485 0.057199910814 0.097765035194 0.040516717436 0.072100108504 0.14557029834 0.023532662466 0.028538942095 
0.016859721506 0.032185588611 0.026592610814 0.010067313997 0.014677781566 0.022082783203 0.022863268151 0.024521475578 0.025489382036 
0.031649948686 0.026856399107 0.025298297144 0.024144035082 0.022657094166 0.025988184783 0.020541010963 0.040900451647 0.023043419675 
0.01795278073 0.019825683999 0.021619659357 0.014886810895 0.030651322709 0.024210737721 0.031952137402 0.019309238497 0.042184804225 
0.030432752398 0.023329412097 0.024937073558 0.01936199109 0.022525410405 0.025183903313 0.029313136653 0.025922749759 0.028113152728 
0.011890737659 0.021475282719 0.020908988141 0.028945210737 0.033756965065 0.033191882364 0.020477734964 0.049585553952 0.053044748715 
0.037393921571 0.08067914748 0.048087815731 0.030172906384 0.033894766149 0.036343001451 0.043023035871 0.080115987512 0.064627612696 
0.067563046154 0.056792530009 0.036737326633 0.028617405493 0.02597401715 0.026000501377 0.045969330522 0.0766666543 0.022118946739 
0.021943012991 0.055137789749 0.047095547245 0.088604247787 0.079592782084 0.069368719324 0.033636854463 0.033368302632 0.086264748237 
0.09453237504 0.049278503239 0.091573490958 0.044435582496 0.064872128862 0.092449530182 0.022106834881 0.02435413335 0.023410569584 
0.023263529812 0.022032067848 0.032583551931 0.019873381031 0.021894338547 0.014504413729 0.024400303317 0.03004478864 0.02603589472 
0.035883327426 0.017452239378 0.018048734956 0.020412097442 0.022966430374 0.026474708062 0.028486660929 0.037773867929 0.04703847566 
0.030623101383 0.015052091261 0.045086825138 0.021005506429 0.027957714443 0.029991072916 0.058747980614 0.022890621048 0.037600858825 
0.030678649644 0.020547735045 0.033893267497 0.029233191941 0.046436462729 0.020239315386 0.019212629157 0.021917551768 0.026379643956 
0.018888223371 0.028915547254 0.027683299558 0.032825672973 0.017352807773 0.018556627464 0.036519441739 0.03230277059 0.0074976483759 
0.041284929182 0.053280854769 0.06227274188 0.041458729807 0.025827388767 0.026504739593 0.023566020171 0.033485907903 0.056403950234 
0.032078264447 0.05042733657 0.064986431096 0.072249673248 0.036606651435 0.034230093746 0.036089612887 0.0242663589 0.019639642388 
0.021273339848 0.054148166021 0.061534408974 0.046923849333 0.037671762972 0.0693925057 0.096195779411 0.1193761049 0.12233867725 
0.077691041256 0.060858531793 0.054083094088 0.057823567518 0.032528342143 0.10733528435 0.026769361981 0.021850052115 0.024555990069 
0.01672529746 0.01668541793 0.025313312443 0.087874608592 0.028491899302 0.037611515661 0.02313957658 0.033021453902 0.024233586567 
0.020283078173 0.028612920348 0.020024370515 0.024749634425 0.055687265438 0.027648728921 0.019918240145 0.041222582288 0.057930545765 
0.031388446096 0.037224757307 0.035987347477 0.04419278251 0.057930538563 0.057379639643 0.022254070254 0.047884758407 0.026196991985 
0.025591275274 0.037107586885 0.031451547635 0.02430927415 0.04480349516 0.031257996993 0.025763196967 0.038974158737 0.020400149267 
0.024183045936 0.013452978186 0.07103159159 0.041336596492 0.015938458788 0.03641198551 0.019823896361 0.018678584848 0.035854264962 
0.035175013934 0.017687429339 0.014671246803 0.030603200193 0.058378911762 0.068291913805 0.062596566019 0.049841817541 0.026194659637 
0.030770573486 0.039886419913 0.020897106468 0.025152204229 0.038280988439 0.033495205729 0.025752798135 0.033133860619 0.071178898069 
0.030052446857 0.043084293943 0.052471224169 0.035103544503 0.050280740059 0.019498967979 0.054948070735 0.038459104597 0.049066785206 
0.060522556842 0.062645376227 0.059535009551 0.033032114223 0.069766201852 0.083853328819 0.11320947403 0.12529797433 0.031798809521 
0.043649602144 0.0653884059 0.049611149561 0.055607299395 0.025292361615 0.021112933564 0.024359345734 0.023698897901 0.022710846266 
0.032792320138 0.051326090003 0.053566847811 0.043204176717 0.030166268378 0.02022782009 0.026698331422 0.024619651905 0.027843710882 
0.058227632031 0.024257423887 0.046579206019 0.040738867876 0.0524573713 0.050017480259 0.030521190864 0.10831387041 0.11559461218 