# vtk DataFile Version 4.2
vtk output
ASCII
DATASET POLYDATA
POINTS 3651 float
-31.4869 22.2557 -6.24065 -31.3176 21.2195 -6.2921 -31.4741 21.2274 -6.27662 
-31.0666 21.8868 -6.28531 -31.0913 21.2209 -6.29636 -32.6137 21.4231 -5.90492 
-32.0697 21.2376 -6.12405 -32.2796 21.2256 -6.04139 -32.0883 22.0055 -6.1178 
-31.8683 21.2259 -6.18978 -31.6659 21.2248 -6.24197 -31.2997 22.4165 -6.25354 
-30.907 21.2294 -6.27729 -33.2778 21.2256 -5.56539 -33.0754 21.2294 -5.67815 
-33.2796 21.118 -5.5799 -32.8964 21.6563 -5.7832 -32.6927 21.2279 -5.87478 
-32.4843 21.9984 -5.96545 -32.3417 22.1018 -6.01966 -31.8845 22.1304 -6.17673 
-31.6832 21.9087 -6.22207 -31.5753 22.6272 -6.22838 -30.9861 22.4167 -6.25859 
-30.8688 21.9137 -6.27597 -30.6835 21.7953 -6.25633 -30.6978 21.2288 -6.24193 
-33.511 21.2336 -5.42135 -33.2702 21.4814 -5.58048 -33.0898 21.7103 -5.69408 
-32.0558 22.3013 -6.11908 -31.2356 22.6267 -6.25936 -30.456 21.4963 -6.19755 
-30.4112 21.2277 -6.18483 -30.2793 21.2629 -6.14392 -30.0775 21.6009 -6.0703 
-29.9509 21.2256 -5.97991 -30.0796 21.2256 -6.06226 -29.902 21.6045 -5.973 
-29.8796 21.2256 -5.92364 -33.5597 21.4159 -5.39793 -33.0186 22.0441 -5.72947 
-32.6768 22.0906 -5.88828 -32.3927 22.8155 -6.01358 -31.8813 22.5853 -6.17188 
-31.4816 22.879 -6.27121 -30.8103 22.6367 -6.2672 -30.4646 21.9229 -6.20435 
-30.2934 21.9537 -6.15378 -29.7287 21.2314 -5.77953 -33.9168 21.8163 -5.21125 
-33.9449 21.2329 -5.17793 -34.0785 21.2281 -5.09075 -33.6796 21.2256 -5.33401 
-33.5345 21.6054 -5.43393 -33.3055 21.7363 -5.57823 -32.6824 22.733 -5.89429 
-32.0151 22.8276 -6.14304 -31.6796 22.8256 -6.22663 -31.2862 22.8723 -6.29309 
-30.946 22.8051 -6.29859 -30.4986 22.6279 -6.2446 -30.6796 22.2256 -6.23846 
-30.0786 21.962 -6.07252 -29.6515 21.756 -5.75982 -34.3845 21.424 -4.87493 
-34.2796 21.2256 -4.94531 -34.1707 21.6922 -5.05011 -33.5082 21.8665 -5.46922 
-32.8912 22.4667 -5.80024 -32.6385 23.0277 -5.93856 -32.0176 23.0233 -6.16845 
-31.6647 23.0489 -6.27497 -31.3647 23.3336 -6.40774 -30.682 23.1538 -6.38704 
-30.4786 22.9116 -6.30634 -30.5433 22.4247 -6.22126 -30.3752 22.227 -6.17985 
-29.8775 22.1405 -5.97935 -29.8796 21.8256 -5.96541 -29.5064 21.5608 -5.58737 
-29.513 21.219 -5.53719 -29.3142 21.4244 -5.34668 -29.3741 21.2256 -5.3799 
-34.6077 21.2244 -4.69213 -34.2213 21.9887 -5.03039 -33.6787 21.9256 -5.37085 
-33.4191 22.2709 -5.53092 -33.074 22.3989 -5.72132 -33.0539 22.8369 -5.7292 
-33.0254 23.0262 -5.75613 -30.9286 23.107 -6.37751 -30.2764 22.8656 -6.26326 
-30.2956 22.4335 -6.1767 -30.0796 22.2256 -6.08681 -29.6694 22.0228 -5.81158 
-29.4424 21.8226 -5.58064 -29.2796 21.2256 -5.28746 -34.7869 21.4027 -4.5664 
-34.8796 21.2256 -4.48557 -34.597 21.7905 -4.75389 -34.0023 22.3773 -5.17828 
-32.9517 23.241 -5.83507 -32.6411 23.255 -5.98535 -31.8962 23.3353 -6.29186 
-31.6763 23.5393 -6.41088 -31.0768 23.6701 -6.54268 -30.6701 23.6953 -6.54158 
-30.4693 23.3869 -6.42909 -30.0796 22.4256 -6.11808 -29.8796 22.4256 -6.03782 
-29.4796 22.0256 -5.66652 -29.2829 21.6719 -5.37961 -29.1762 21.4256 -5.17991 
-35.0579 21.2384 -4.34155 -34.5763 22.0304 -4.78738 -34.4195 22.4739 -4.91031 
-33.725 22.6067 -5.36538 -33.4195 23.024 -5.55177 -33.3755 23.2384 -5.61503 
-32.3923 23.2421 -6.08244 -31.5707 23.8095 -6.52352 -31.3087 23.7481 -6.54311 
-30.8798 23.6634 -6.54398 -30.1305 23.1006 -6.2985 -30.0633 22.732 -6.18297 
-29.7315 22.4174 -5.95698 -29.5251 22.211 -5.75268 -29.3129 21.9926 -5.52718 
-29.2794 21.8759 -5.45143 -29.0978 21.6661 -5.17113 -35.2749 21.5379 -4.18286 
-35.246 21.2269 -4.17875 -35.0576 21.7693 -4.37398 -34.77 21.8047 -4.61939 
-34.8828 22.1894 -4.53426 -34.0878 22.6404 -5.14482 -33.3948 22.6879 -5.54854 
-33.3118 23.4942 -5.73104 -32.8551 23.4201 -5.94166 -32.6644 23.8102 -6.17219 
-31.8595 23.9258 -6.49214 -31.0893 24.3445 -6.69996 -30.8909 24.1055 -6.64104 
-30.4835 23.737 -6.52794 -30.1372 23.5186 -6.4051 -29.8441 22.629 -6.0791 
-29.0157 21.4255 -4.99576 -29.0796 21.2256 -5.07895 -35.5092 21.5114 -4.00635 
-34.589 22.36 -4.78365 -34.3249 23.0085 -5.00326 -33.7969 23.0181 -5.33946 
-33.8393 23.2337 -5.34321 -33.6471 23.4259 -5.51528 -32.1309 23.7822 -6.36799 
-31.6895 24.0812 -6.56216 -31.4757 24.5846 -6.71449 -31.2823 24.3881 -6.6958 
-30.661 24.4236 -6.68542 -30.4861 24.2144 -6.61315 -29.8894 23.2909 -6.2984 
-29.8806 22.9106 -6.1818 -29.5067 22.6734 -5.92696 -29.4755 22.4214 -5.79229 
-29.1455 22.214 -5.49782 -29.0957 22.0672 -5.36907 -28.9206 21.5966 -4.93943 
-35.4912 21.2255 -3.99326 -35.4292 21.8388 -4.09074 -34.864 22.4836 -4.57048 
-34.6713 22.8212 -4.74674 -34.0877 23.0806 -5.16728 -33.8333 23.9171 -5.57928 
-32.9723 23.8013 -6.02172 -32.4971 24.077 -6.31649 -32.1915 24.0108 -6.40593 
-31.886 24.5221 -6.6055 -31.2796 24.6256 -6.75528 -30.8796 24.4256 -6.71289 
-30.2644 24.1233 -6.55849 -30.1306 23.9609 -6.50279 -29.877 23.8132 -6.41211 
-29.6796 22.8256 -6.07298 -29.3037 22.4297 -5.70731 -29.0296 21.8256 -5.17991 
-28.8635 21.8031 -4.99289 -28.874 21.4252 -4.79133 -35.7904 21.2383 -3.76447 
-35.7365 21.8102 -3.8293 -35.2215 22.1889 -4.26615 -35.1522 22.5499 -4.3474 
-34.6024 23.028 -4.81674 -34.3908 23.2149 -5.0004 -34.0457 23.423 -5.26543 
-33.5494 23.981 -5.7712 -33.2638 24.0285 -5.93983 -32.8597 24.0709 -6.1616 
-32.0924 24.421 -6.52475 -31.6725 24.8214 -6.72569 -31.0796 24.6256 -6.76518 
-30.8796 24.6256 -6.7485 -30.6796 24.6256 -6.71747 -30.4796 24.4256 -6.65825 
-30.2796 24.4256 -6.60929 -29.6787 23.6293 -6.3118 -29.6824 23.1008 -6.18278 
-29.3656 23.0122 -6.00776 -29.0818 22.4285 -5.5778 -28.8784 22.2262 -5.30758 
-28.8843 22.0466 -5.17847 -28.8771 21.226 -4.80574 -35.8204 21.4662 -3.75731 
-35.5374 22.2579 -4.01081 -34.9543 22.8454 -4.51852 -34.7682 23.1069 -4.70698 
-34.0531 23.7352 -5.37977 -34.028 24.2349 -5.55198 -32.6219 24.4866 -6.33413 
-32.063 24.783 -6.59582 -31.8796 24.8256 -6.6663 -31.4796 24.8256 -6.75923 
-31.2796 24.8256 -6.76687 -30.4796 24.6256 -6.67301 -30.197 24.4256 -6.5799 
-30.0796 24.2256 -6.52598 -29.8796 24.0256 -6.44904 -29.6837 23.8219 -6.35862 
-29.143 22.8238 -5.82851 -28.9394 22.7946 -5.70601 -28.7739 22.5447 -5.44962 
-28.7986 21.6135 -4.78317 -28.7699 21.4256 -4.5799 -36.05 21.2246 -3.54206 
-35.824 22.367 -3.78876 -35.1398 22.9993 -4.41037 -34.2751 23.5566 -5.16676 
-34.2764 24.0755 -5.35745 -33.5814 24.232 -5.81893 -33.1456 24.2354 -6.05653 
-33.0686 24.5301 -6.14981 -32.2815 24.4331 -6.4597 -32.2798 24.8032 -6.51948 
-31.6796 25.0256 -6.69752 -31.4796 25.0256 -6.68961 -31.0796 24.8256 -6.74867 
-30.8796 24.8256 -6.70224 -30.4796 24.7633 -6.5799 -30.2794 24.6261 -6.5801 
-29.4796 23.8256 -6.24454 -29.4397 23.3069 -6.14578 -29.0811 23.2465 -5.97655 
-28.7592 22.7822 -5.59018 -28.5275 22.5988 -5.31443 -28.6913 22.232 -5.16598 
-28.64 22.0211 -4.91155 -28.556 21.8256 -4.5799 -28.6862 21.4274 -4.33254 
-28.7151 21.2256 -4.37991 -36.0186 21.0256 -3.5799 -36.0772 21.5016 -3.55916 
-35.3968 22.6816 -4.16804 -34.6506 23.438 -4.88159 -34.4372 23.9516 -5.21102 
-34.3857 24.3902 -5.36073 -33.8282 24.5478 -5.738 -32.9966 24.8953 -6.21629 
-32.7034 25.0299 -6.38241 -32.1657 25.0277 -6.59261 -31.8796 25.0256 -6.67263 
-31.0796 24.9751 -6.5799 -30.6394 24.8269 -6.58604 -30.0796 24.4256 -6.50594 
-29.8443 24.2279 -6.38793 -29.6946 24.021 -6.37524 -29.4796 23.6256 -6.23283 
-29.2796 23.4256 -6.12282 -29.0609 23.4281 -6.0276 -28.8737 23.2061 -5.85156 
-28.4956 23.0255 -5.54316 -28.2999 22.8194 -5.29523 -28.6171 21.5759 -4.37569 
-28.6803 21.2256 -4.11232 -37.2556 21.2377 -2.37319 -37.2522 21.0249 -2.37909 
-37.3802 21.0256 -2.17991 -37.0807 21.2453 -2.58848 -36.8732 21.523 -2.82399 
-36.8623 21.2338 -2.8076 -36.2787 21.4524 -3.37969 -36.3309 21.2283 -3.29688 
-36.2586 21.0246 -3.36471 -36.0796 21.0256 -3.52198 -36.2506 22.2035 -3.44036 
-35.8731 22.7425 -3.78931 -35.4963 23.1665 -4.17607 -35.0255 23.224 -4.55297 
-34.8568 23.5264 -4.77636 -34.6425 23.6599 -4.96271 -34.1968 24.5445 -5.51189 
-33.4515 24.4218 -5.92679 -33.3455 24.7179 -6.01728 -32.4796 25.0256 -6.49023 
-31.6796 25.1584 -6.5799 -31.4796 25.1044 -6.5799 -31.245 25.0245 -6.58542 
-30.8796 24.9122 -6.5799 -30.4575 24.7369 -6.37816 -30.2491 24.6314 -6.37663 
-29.5491 24.0234 -6.17776 -29.2795 23.6257 -6.15565 -28.3027 22.6386 -5.17322 
-28.5164 22.4248 -5.16687 -28.4867 22.2401 -4.96897 -28.4768 21.8481 -4.46795 
-28.613 21.4102 -4.00696 -28.6271 21.2234 -3.93687 -28.4902 21.4295 -3.71511 
-28.4796 21.2259 -3.63387 -37.4222 21.2467 -2.13022 -37.4775 21.0254 -2.0028 
-37.2721 21.5242 -2.38021 -37.1068 21.6287 -2.59377 -36.2832 21.8974 -3.39577 
-36.1048 22.491 -3.58179 -35.2426 23.2348 -4.38148 -34.6892 24.2051 -5.11389 
-34.5002 24.7194 -5.35578 -34.1009 24.9763 -5.62419 -33.5098 24.6375 -5.92478 
-33.2819 25.2281 -6.11396 -32.8796 25.0256 -6.29175 -32.2796 25.2256 -6.48415 
-32.0796 25.16 -6.5799 -31.8562 25.2 -6.56749 -31.2345 25.0291 -6.37905 
-31.066 24.9533 -6.38015 -30.6829 24.8236 -6.38205 -30.0677 24.4422 -6.37771 
-29.8796 24.2543 -6.37991 -29.4045 23.8256 -6.1799 -29.0796 23.6256 -6.03026 
-28.8796 23.4256 -5.90812 -28.6818 23.2253 -5.74414 -28.2797 23.0256 -5.37889 
-28.1014 22.8322 -5.13163 -28.3213 22.4428 -5.00749 -28.4796 21.6773 -4.17991 
-28.3614 21.2256 -3.37991 -37.598 21.0256 -1.77991 -37.4313 21.5817 -2.17537 
-37.1045 21.9425 -2.63745 -36.4781 21.7331 -3.20986 -36.5501 22.1148 -3.16882 
-36.339 22.4214 -3.39389 -36.2302 22.7838 -3.53857 -35.9572 23.0213 -3.7828 
-35.6264 23.477 -4.16682 -35.1596 23.5223 -4.54107 -35.0847 23.831 -4.73018 
-34.7312 24.7785 -5.21743 -34.6421 25.0203 -5.31237 -34.2604 25.2265 -5.5777 
-33.8612 25.2215 -5.79506 -33.6151 25.2232 -5.92316 -33.17 25.2256 -6.1799 
-33.0796 25.2256 -6.22893 -32.8796 25.2256 -6.30803 -32.6548 25.2232 -6.38235 
-32.4796 25.2256 -6.44647 -31.7173 25.2237 -6.38092 -31.4796 25.1391 -6.37991 
-30.6661 24.5448 -6.17978 -30.3119 24.3872 -6.17197 -29.8802 24.226 -6.22284 
-29.6796 24.1157 -6.1799 -29.0796 23.6785 -5.97991 -29.0334 23.6256 -5.97991 
-28.7282 23.4228 -5.7744 -28.4796 23.2256 -5.5795 -28.287 23.2258 -5.37447 
[...]
CELL_DATA 7173
FIELD FieldData 1
Area 1 7173 double
0.080829059537 0.075345784274 0.024443743041 0.081247498632 0.1003139829 0.11117820051 0.14462286585 0.061579342703 0.01257194173 
0.092026732404 0.043585605821 0.18191537751 0.10336459188 0.097175213703 0.071462875074 0.070804018166 0.042019604003 0.083214335965 
0.067215242972 0.060131932101 0.014831962005 0.029630722149 0.051070936393 0.039898891825 0.10517467805 0.080992186137 0.041694792975 
0.029428903906 0.091261131591 0.052096608038 0.035867535043 0.032970496554 0.051403338868 0.066014927191 0.068189912315 0.039233305469 
0.019371625126 0.028666628695 0.017254630994 0.024780864212 0.043336313157 0.051801905998 0.037674995985 0.0562875869 0.05704088901 
0.1130357167 0.041241936951 0.047161562734 0.10955567167 0.043372045621 0.045934659283 0.04021362776 0.048633059482 0.061855939055 
0.040480355412 0.037962502425 0.039721268796 0.04643423572 0.029793359321 0.017525049224 0.031235439819 0.030846607059 0.041905963937 
0.076175591402 0.066488489623 0.12378124898 0.10477471191 0.041482779813 0.033136540728 0.022964067193 0.024295956673 0.037189651647 
0.035325946742 0.066656485074 0.047950157174 0.03822541294 0.077015645915 0.036218360131 0.081116862977 0.024769447187 0.0760146253 
0.12569670301 0.046339230179 0.036615110613 0.056515013201 0.076280365107 0.073897831758 0.04397330797 0.039345058328 0.041752413423 
0.022460236576 0.046723077553 0.040543214112 0.047021884742 0.045494707143 0.045362943097 0.043698729322 0.047067249863 0.025708307759 
0.04146554593 0.057710530416 0.034740015843 0.065796341383 0.055587023855 0.020780920915 0.041215308668 0.077354954814 0.047917666311 
0.054514321586 0.032729953755 0.10262307269 0.037204973515 0.066008883479 0.063136050881 0.069867049993 0.034120439907 0.041522500923 
0.054168637783 0.09492752206 0.05375461725 0.038071705397 0.070583026528 0.030271655609 0.025686720752 0.030789072541 0.042300471304 
0.030336953395 0.029889928962 0.0042958100024 0.039505730641 0.034675705173 0.050613071209 0.013196391637 0.030336896592 0.04758449769 
0.083381131084 0.074441458466 0.091603152853 0.085329107161 0.026958397412 0.043008650841 0.073397565203 0.042881370971 0.040491343175 
0.046647218696 0.076748774218 0.057641572078 0.079248442513 0.11169054403 0.069163570122 0.051278703424 0.050441645584 0.047102163393 
0.025679227123 0.031333789198 0.031982762842 0.041698322899 0.03213954215 0.03129948948 0.037614282725 0.038453433476 0.021590712235 
0.021087837663 0.095879671563 0.052448612345 0.10912001619 0.11875706371 0.11126759845 0.084930120317 0.042044320328 0.051870771825 
0.039807076268 0.027805417491 0.078693135234 0.059285025535 0.056950693844 0.052906021161 0.057356658079 0.060266812108 0.058842880152 
0.063491960368 0.049723695503 0.023504225478 0.021776234467 0.024297228378 0.034566433157 0.022801545957 0.021181235443 0.023183744317 
0.035072694608 0.026664347821 0.038892111043 0.091894166893 0.044507932416 0.050703642423 0.099589287402 0.061046324822 0.054433940889 
0.07753175748 0.078227462558 0.066398706179 0.048184980786 0.063411685228 0.031386211721 0.021249790712 0.17095682892 0.065976087118 
0.048673251673 0.059169293522 0.080045917671 0.044565140084 0.047695123504 0.03449175969 0.07302990064 0.03677279005 0.035098844062 
0.022604381645 0.017777011587 0.05475160742 0.019080799497 0.014682384443 0.029138666568 0.030096066264 0.024433462594 0.045988264289 
0.074446395774 0.075363510835 0.041149558491 0.064553151785 0.035585373856 0.097794560116 0.086146602558 0.080770568662 0.072897837925 
0.058124921729 0.048723398655 0.051965079786 0.12408951619 0.13162578169 0.084368593508 0.033810144277 0.10802966608 0.064225480657 
0.067186209284 0.084141220844 0.045571158636 0.062187183806 0.053581164627 0.042364129782 0.037499388634 0.044240632539 0.033267274648 
0.052791446673 0.019240010075 0.05415565659 0.029189526045 0.0440636246 0.046587025531 0.064260458112 0.075235373562 0.053570147877 
0.053870529329 0.10301076859 0.063079720177 0.074816315387 0.047064738113 0.052897000317 0.10676358942 0.09814336728 0.068933810865 
0.081761894924 0.038218242479 0.055124501894 0.061406141951 0.06680963633 0.023754725319 0.033947929716 0.036151355795 0.066892709386 
0.054387756829 0.08091672339 0.069373797376 0.05000447452 0.031850988799 0.034968084892 0.041251091186 0.020788509556 0.053412258338 
0.026211029221 0.020608249607 0.032040183118 0.022053380558 0.053940658765 0.064443954715 0.091273007005 0.090748300627 0.054931853935 
0.074934066811 0.035652587473 0.032202250765 0.035597086444 0.046005192464 0.12118810413 0.093599800577 0.099159806675 0.047301712957 
0.053600078843 0.035873227913 0.0773534061 0.066743030679 0.08072917771 0.078061901931 0.024213493454 0.028882196849 0.021303782915 
0.022459053029 0.019826929323 0.033757186236 0.045140254993 0.059398211739 0.056494299672 0.041682656344 0.03008878719 0.047390112096 
0.026563106143 0.030478466779 0.027736721095 0.03534444267 0.021597548133 0.01544451194 0.024792677193 0.046126357525 0.066058032587 
0.086482134317 0.080492994446 0.078084301388 0.06256054357 0.064585893053 0.024437448161 0.034442142418 0.047218864348 0.065003798541 
0.042782771171 0.06197346033 0.089018189502 0.060722719367 0.082099075353 0.070970834033 0.03802471547 0.033308989665 0.023988098904 
0.024461179801 0.020057811924 0.02897400895 0.020550077095 0.020878950526 0.018398143792 0.022246878 0.013381613736 0.022724736582 
0.028001406173 0.019881074028 0.05958885257 0.031351914984 0.050508864901 0.059898257378 0.072532011438 0.052577452127 0.038310446878 
0.059688098433 0.028528657372 0.031753896338 0.025591940398 0.023480876311 0.03922181541 0.046986980203 0.095893062196 0.077066717614 
0.051901581164 0.05099746997 0.029795221045 0.056236698196 0.04426538106 0.070823676144 0.066045682189 0.066978123803 0.042803771029 
0.045537671166 0.10795258975 0.0721696988 0.037670372694 0.042633050239 0.029731018218 0.022138170793 0.02072220827 0.02004868527 
0.0201502417 0.020137793118 0.020761132945 0.016896069184 0.020643911005 0.0088695866721 0.025404220637 0.032822183644 0.021641194323 
0.02301246332 0.069588996023 0.050059992928 0.062080525904 0.052879355202 0.044210081768 0.048310667139 0.050721589227 0.024679374946 
0.046609734586 0.054521119686 0.023420501899 0.026349165474 0.03437091588 0.044995536556 0.14644865542 0.088427610745 0.078170197985 
0.071609763404 0.048610596657 0.070214614516 0.070786192585 0.073115271952 0.050995655828 0.057680278857 0.083126287796 0.052338856803 
0.054517505391 0.090598606194 0.097895980575 0.037547259967 0.027375976874 0.026333238989 0.020163629302 0.020638150966 0.021190965721 
0.02258168226 0.021047117058 0.029981516805 0.020792150072 0.017810813428 0.022313787602 0.014239959207 0.013927177677 0.027926667951 
0.019814585982 0.023336867175 0.021442483412 0.034744563743 0.031968024138 0.026194335922 0.054324117335 0.052190364323 0.029704661809 
0.074502719372 0.028607237775 0.049906424431 0.042867306229 0.063547497226 0.052845662535 0.021988323126 0.027396957365 0.025191699567 
0.029545484974 0.044852913432 0.08170278631 0.037795491232 0.023697790659 0.0083726652955 0.051935234454 0.21049603513 0.11347444559 
0.097849724664 0.044914758814 0.048145321413 0.051126576864 0.080885878003 0.040234197181 0.050676124542 0.068212633454 0.051029644805 
0.04749710202 0.059914151942 0.065056518709 0.095884945681 0.085831132302 0.037354585864 0.029728174347 0.017811503068 0.013509109243 
0.032152760886 0.023402560397 0.023157760168 0.015119444745 0.018663967695 0.017316922655 0.024824675089 0.028382881938 0.027364224212 
0.020731010859 0.026935409516 0.021479843959 0.034929886778 0.016772816235 0.052003820969 0.022803544822 0.10468218222 0.067899183688 
0.028900596435 0.025145188508 0.03728305897 0.019012824429 0.048531582748 0.027696202545 0.032598678795 0.017332255589 0.034680717815 
0.022377731686 0.032284661682 0.039821307512 0.062196241146 0.11804621904 0.028165251587 0.05091529286 0.062830385143 0.063281567743 
0.1468090647 0.042389266032 0.032552426001 0.062857682703 0.028902939651 0.080489398719 0.075560741005 0.047961944829 0.093652996262 
0.04245207382 0.058471536841 0.094021106564 0.012682953284 0.028237478191 0.034674265493 0.020425859452 0.018512320848 0.018016431855 
0.016374806446 0.017809661277 0.021012784409 0.025970641198 0.024809557852 0.02359595003 0.017007629146 0.003844775194 0.02903229161 
0.010888860921 0.010386491991 0.02382706131 0.023581659533 0.024270548068 0.026199823066 0.029950934893 0.026762933011 0.034036491976 
0.026553192237 0.031977602503 0.066086778867 0.021950973425 0.044456872393 0.030802435861 0.028712693002 0.028093362999 0.049717104076 
0.03709713583 0.0525009253 0.053413787589 0.10509978854 0.059894035197 0.059536659641 0.036241855905 0.061752763614 0.090744996897 
0.055757033405 0.041918874503 0.059111914426 0.059531916374 0.1446361554 0.11155541566 0.04203366115 0.038874781673 0.052726544848 
0.099208268461 0.11264256074 0.022587021682 0.044289158938 0.021567426924 0.027616073711 0.019844524114 0.024249997324 0.020817708385 
0.017941716278 0.022287673285 0.018428056278 0.021002690324 0.025604148447 0.018519223621 0.040431280678 0.039082244597 0.037373883694 
0.038890731905 0.017252718928 0.0035562151602 0.016406305414 0.032854054476 0.024206387793 0.0067605629069 0.021673317259 0.022448732033 
0.022246355789 0.02656562954 0.027185897233 0.031031701145 0.025622826666 0.032622362799 0.034944368494 0.029897330907 0.053381044046 
0.038977880857 0.047411480611 0.013287916271 0.058860606876 0.040084890261 0.020148408906 0.048312324509 0.042184586759 0.068225048012 
0.068141013221 0.04443828871 0.057850484139 0.053492067138 0.059324909058 0.058097761955 0.048600021096 0.048795370918 0.060071169643 
0.037721347299 0.057480915195 0.08510434499 0.062081681596 0.15116607478 0.064707194194 0.036579951664 0.16166778134 0.026109210343 
0.031298332057 0.093897244948 0.11309553897 0.0096460409018 0.017185106909 0.021569414596 0.023001877741 0.01907014757 0.012123916639 
0.0097505693174 0.010900737973 0.01623440809 0.025882561924 0.027194193621 0.026584615921 0.017941749894 0.035412864003 0.063720833099 
0.041364402671 0.021079281738 0.019675566152 0.015049713043 0.024366253688 0.014889050878 0.0021492812723 0.023352061649 0.017630747702 
0.025759734189 0.028620567895 0.023122527698 0.029382994571 0.023518862592 0.030392746614 0.041196491008 0.030555480516 0.098258043555 
0.032845832936 0.043692706058 0.013766131785 0.058993826554 0.040292443361 0.023963096053 0.021697791681 0.10003058975 0.04812888864 
0.071028175077 0.02652429666 0.074579291171 0.083616860743 0.080371922045 0.086651642279 0.054257140849 0.045959512197 0.066436735333 
0.073059675531 0.069159984987 0.070294518569 0.032007887452 0.071865813865 0.033276466862 0.027013331702 0.022259354104 0.01751957025 
0.019708788835 0.038220553788 0.028520265266 0.0075196989267 0.015807834899 0.023158449378 0.0075755489099 0.0084218500356 0.012070588729 
0.014069494895 0.021283510321 0.016923486775 0.02675436529 0.030443148928 0.043759160238 0.020367594828 0.027096141089 0.025529837393 
0.010086312875 0.035182339992 0.016765737513 0.016424857876 0.034323170633 0.02151339684 0.02112300387 0.023333199538 0.02467811494 
0.0075564452971 0.021719189955 0.026126658943 0.030519425126 0.015599763633 0.025059991427 0.027295366788 0.027845419301 0.030220281804 
0.035804097573 0.046961362262 0.031403004969 0.083059586848 0.055848501133 0.12462536049 0.038489789666 0.057741411468 0.036011457586 
0.027945161037 0.030470288346 0.05273192745 0.062815807963 0.040087689937 0.036460981469 0.02951769464 0.068866099121 0.11669633637 
0.13085648687 0.052386597237 0.054967762505 0.061620219575 0.11208522574 0.081388490729 0.079577805956 0.067598140122 0.058431545602 
0.11247693773 0.034199972682 0.026923348161 0.0094508025588 0.027823934509 0.019539050662 0.030288598221 0.013101772451 0.021984780994 
0.019003245427 0.02385536921 0.0138825876 0.020028424784 0.027236974882 0.02026860471 0.020014342778 0.014123304863 0.02221360848 
0.022107182135 0.025649526743 0.037338536912 0.019102806619 0.027011195122 0.020298885074 0.023329071562 0.016549744576 0.041155332229 
0.010157475946 0.016620337075 0.022514504534 0.015986249881 0.017047544462 0.020647386148 0.022120040698 0.019497868189 0.021744586287 
0.0084258288137 0.026227637217 0.026799261347 0.014907849483 0.024428729506 0.026164199299 0.022144404158 0.01703137113 0.034364094822 
0.063832397171 0.036224652796 0.042667596447 0.075581338831 0.018441606717 0.047455525845 0.051970120627 0.014755489884 0.04648461103 
0.031229722077 0.068194763578 0.076081813412 0.031853409499 0.029700540126 0.04611263677 0.043892039954 0.048769341099 0.056957416886 
0.050753484329 0.062746526449 0.058164039416 0.048283693586 0.076103324243 0.073394252724 0.093818154081 0.12411516429 0.042335493239 
0.04770050662 0.069561689275 0.027161860739 0.02240765668 0.015010131433 0.0072579427193 0.01837101699 0.019730352268 0.012313629247 
0.010053391653 0.012474758199 0.020790571143 0.010034084206 0.013403186972 0.021017182493 0.021018792799 0.020443349577 0.02013158453 
0.023496802115 0.024798252091 0.025493635455 0.033419734552 0.017956829694 0.040331021304 0.024711559777 0.034372426969 0.020155316167 
0.04425190397 0.02713735714 0.021509340124 0.031638571685 0.031435282117 0.029800448214 0.023766516083 0.020507921092 0.022015781356 
0.0070885428098 0.01746621066 0.036742143646 0.01820275905 0.022706139398 0.021067885059 0.010526666589 0.017062884369 0.021556572417 
0.023995926396 0.019426362207 0.04468799928 0.059403848378 0.025284415189 0.032331549329 0.042955599236 0.014722130982 0.060038510802 
0.028812368758 0.033504394702 0.028217015362 0.061743634442 0.027865779712 0.034902258242 0.034691713746 0.042243355798 0.056721365805 
0.036691598707 0.063489784266 0.045068857463 0.065357242382 0.063130099147 0.065461399603 0.070291184078 0.049138394884 0.079945625008 
0.10809142252 0.039097511386 0.042761122896 0.022075308191 0.031954044348 0.021811951721 0.011485672719 0.0056086468223 0.011325371717 
0.0283141502 0.029259160685 0.017675603642 0.011959496703 0.016182384414 0.020137321801 0.023649207517 0.010799128549 0.020126560607 
0.021017553207 0.020219330203 0.021410377274 0.033639825624 0.018439189599 0.030952902327 0.019410108743 0.043291846029 0.030890405 
0.022668458302 0.021724383711 0.030527155778 0.022482850964 0.02183080398 0.023155077538 0.023943739298 0.032325930097 0.036479042565 
0.028458769051 0.021135946781 0.019671552941 0.035524950044 0.021002185945 0.021323054515 0.025333010492 0.019922730207 0.010523138951 
0.02229075973 0.027906386284 0.045570701412 0.025443681215 0.031726241605 0.085759645861 0.11572797694 0.054076370792 0.1149960473 
0.037744431132 0.059831928048 0.047811253509 0.019889086834 0.047367997102 0.045559674676 0.087849261325 0.035951198554 0.082449628969 
0.037454940647 0.039002576389 0.02872813958 0.065876074729 0.07239506667 0.041322644247 0.036337373344 0.049612817638 0.058697106761 
0.06898030656 0.046632997336 0.068919198409 0.043957276561 0.046020839671 0.033298796287 0.025126174194 0.018145829434 0.022489865013 
0.0073083502727 0.028803950238 0.025270884837 0.0099474727379 0.0034471721917 0.0069801551894 0.02065829187 0.020000975714 0.020145912378 
0.020131973277 0.019753040616 0.018591965684 0.021400569664 0.038012024295 0.020126366929 0.020762847873 0.036709662863 0.031171571404 
0.017348500631 0.022075485121 0.037615152359 0.025980084842 0.022977929512 0.035397345103 0.021940710407 0.014268343548 0.019552531432 
0.029487368245 0.02302804233 0.021656838623 0.036126054702 0.02848722852 0.020804760732 0.022544829414 0.04454295764 0.01554062026 
0.02129329812 0.024863680825 0.040563923665 0.01827952648 0.026429567736 0.020672081292 0.021382743373 0.041084311761 0.015878217221 
0.056603283774 0.078947916018 0.048195552342 0.060060532633 0.03886249936 0.029522254438 0.026798545857 0.04419767818 0.047820195287 
0.030416437464 0.04066322853 0.057053712087 0.058677391928 0.030995668107 0.052949999787 0.073357760273 0.053717123883 0.051602450797 
0.034959654042 0.069383346023 0.094275595846 0.065449844238 0.052873235777 0.07301652742 0.050076520481 0.020132402591 0.037522122699 
0.026991376574 0.02016196225 0.028113675759 0.0063623421366 0.026857869297 0.02232126883 0.0048922124338 0.012441363125 0.012821415088 
0.020000515736 0.020001103567 0.020014123387 0.030850501706 0.054235144731 0.026210220678 0.037318433514 0.021527072948 0.037510055482 
0.022020097009 0.024214179233 0.020737717634 0.039433031533 0.027071908701 0.020986860455 0.034945013607 0.023879722823 0.027475373068 
0.028370169638 0.030995779721 0.020144567289 0.023836412258 0.039683061138 0.034126024423 0.042518461906 0.026942667068 0.013546857213 
0.026998539713 0.042686657889 0.024598281895 0.018125168426 0.020409339965 0.019388078735 0.030647422793 0.048577686257 0.021924466569 
0.055061129709 0.052090529177 0.0056282470956 0.03318468313 0.052087385858 0.023454536559 0.027341594866 0.017828699145 0.032968330743 
0.026637957946 0.077020335443 0.046757852849 0.050679346803 0.023893143068 0.023270705584 0.051707831889 0.055673170808 0.04834933428 
0.061101002005 0.054096478924 0.027520789108 0.047457988705 0.065298593913 0.060063869617 0.094442971402 0.089014090571 0.026949710658 
0.025527843364 0.0086446081648 0.010773186728 0.015781211593 0.021625551018 0.028127386394 0.019749081404 0.022474962655 0.022754028671 
0.0064173632768 0.011005474943 0.015012790537 0.020164896772 0.024421483414 0.020436191143 0.027394557696 0.053671894893 0.025187116131 
0.021882057195 0.045365259943 0.021342682807 0.024118947555 0.030276995627 0.023817815748 0.025485470696 0.021475142008 0.035354270112 
0.01154532469 0.009552342482 0.025274217658 0.020248109487 0.019138240592 0.026128085527 0.017043191869 0.016513104364 0.03181858591 
0.022884577089 0.010406235033 0.0086199412722 0.015108793039 0.019214890201 0.021887495057 0.022000654692 0.017653306709 0.027873986327 
0.020261577041 0.057077142893 0.045739395083 0.10229925752 0.018501343148 0.063245788521 0.039479868773 0.022401266941 0.026775694838 
0.02022063873 0.030262122474 0.052684566645 0.069808841969 0.032654687882 0.038096676401 0.040550351482 0.030441165052 0.034859096035 
0.042027229365 0.044597022673 0.058043760963 0.038833718666 0.043769672358 0.064219443918 0.074954714429 0.1150978274 0.051987633162 
0.060840367743 0.061411986662 0.09406365916 0.015789618344 0.014666795228 0.026420204915 0.0038277449221 0.013141630369 0.02431812652 
0.015416342872 0.021403954383 0.020180044231 0.02062061394 0.020562424033 0.01948513668 0.01920627049 0.014947703917 0.020490385207 
0.022700992626 0.023907076101 0.017668825118 0.019257269412 0.017456657084 0.027191287193 0.019393334657 0.035715167821 0.0091213178294 
0.023094665811 0.02043307652 0.032774346295 0.019679907909 0.02120430119 0.023462281873 0.013498476351 0.029301237769 0.031742524669 
0.036760314389 0.028575169542 0.031064329794 0.014300150139 0.019520774784 0.013626448368 0.0223597644 0.019947107755 0.032743073745 
0.018167339963 0.027205851289 0.03003109201 0.015580774509 0.024249957254 0.016953676133 0.025152582761 0.022505007401 0.020353349909 
0.021004954027 0.02107082947 0.02977407607 0.048873417574 0.036224898887 0.045347864724 0.1221259081 0.073035149934 0.084220588973 
0.047101841356 0.043751309811 0.037626554621 0.024914281715 0.022460761472 0.022716956092 0.039937387757 0.06518309704 0.03688334117 
0.034606700164 0.049312409124 0.028898225626 0.048728266544 0.038164549708 0.045107674935 0.031106295576 0.042520164402 0.049389989146 
0.036924790931 0.036961717082 0.042418829459 0.073063339768 0.061353780618 0.025371006829 0.024231610702 0.01295545756 0.01143530979 
0.02233901143 0.015707508303 0.011267452898 0.022532617172 0.017658913952 0.035865468774 0.024374447056 0.02425065164 0.025251933168 