# vtk DataFile Version 4.2
vtk output
ASCII
DATASET POLYDATA
POINTS 3685 float
-36.7634 21.075 -3.16845 -36.7075 21.2809 -3.22375 -36.6281 21.075 -3.28865 
-36.5345 21.075 -3.36845 -36.3219 21.2693 -3.56747 -36.4282 21.075 -3.46715 
-36.3277 21.075 -3.56845 -37.2061 21.2828 -2.74203 -36.964 21.075 -2.96845 
-37.0281 21.075 -2.9082 -37.228 21.0742 -2.72662 -36.8375 21.4941 -3.1187 
-36.2955 21.4885 -3.60788 -36.085 21.2777 -3.77166 -36.1151 21.0759 -3.77029 
-37.4004 21.2845 -2.53006 -37.2179 21.4889 -2.75133 -36.6041 21.5656 -3.3405 
-35.8103 21.2761 -3.96387 -37.8109 21.2811 -1.90969 -37.8279 21.0764 -1.86642 
-37.9518 21.075 -1.56845 -37.7753 21.075 -1.96845 -37.5616 21.2724 -2.31966 
-37.5324 21.075 -2.36845 -37.6234 21.0757 -2.22665 -37.4004 21.6421 -2.56394 
-36.8787 21.9359 -3.10366 -36.4154 22.0443 -3.51278 -36.0837 21.6151 -3.77889 
-35.6723 21.4947 -4.08835 -35.4828 21.2666 -4.20494 -35.6281 21.075 -4.09421 
-37.9601 21.2742 -1.57843 -37.2439 22.0332 -2.76734 -36.7732 22.1989 -3.21281 
-36.0689 21.9691 -3.78446 -35.4785 21.0738 -4.21333 -32.708 21.267 -5.92938 
-33.0883 21.076 -5.76987 -33.1596 21.2743 -5.71463 -32.8281 21.075 -5.89035 
-32.1892 21.4807 -6.15876 -32.4282 21.075 -6.06481 -32.1649 21.2761 -6.16497 
-38.03 21.0735 -1.29969 -37.9421 21.7731 -1.75295 -37.5982 21.6248 -2.30654 
-37.4429 22.0331 -2.56526 -37.2422 22.2687 -2.80542 -36.4141 22.379 -3.54056 
-36.1537 22.2965 -3.74552 -35.8718 22.0217 -3.94558 -35.6702 21.708 -4.10773 
-35.2769 21.45 -4.39829 -35.3159 21.075 -4.36845 -33.9178 21.2764 -5.34302 
-34.0281 21.075 -5.27633 -34.2192 21.2781 -5.15469 -33.8716 21.0753 -5.37875 
-33.617 21.2763 -5.49991 -33.594 21.6438 -5.54189 -32.9138 21.4599 -5.84519 
-32.0238 21.4938 -6.21618 -31.6191 21.3344 -6.30292 -31.6282 21.075 -6.30501 
-31.8142 21.0766 -6.27571 -38.0191 21.2708 -1.37387 -38.0293 21.7956 -1.56815 
-37.7679 21.7921 -2.07436 -37.6416 22.0316 -2.33472 -37.4667 22.2812 -2.59805 
-36.8038 22.445 -3.2196 -35.3964 21.7108 -4.32116 -35.1457 21.2858 -4.4927 
-34.3185 21.4573 -5.11647 -34.5846 21.2787 -4.92571 -33.9474 21.4923 -5.35648 
-33.2323 21.7564 -5.73368 -32.6288 21.5857 -5.96901 -32.3028 22.1609 -6.12273 
-31.8313 21.5724 -6.26103 -31.32 21.0732 -6.31744 -31.2138 21.5998 -6.30298 
-30.85 21.0758 -6.27828 -30.6295 21.3586 -6.22459 -30.6282 21.075 -6.21792 
-38.0691 21.3028 -1.17158 -38.0837 21.075 -0.968453 -38.0292 22.2171 -1.7852 
-37.7957 22.0651 -2.13004 -37.3653 22.4641 -2.74936 -37.067 22.479 -2.99926 
-36.6481 22.6644 -3.38669 -36.2344 22.6682 -3.72358 -35.8838 22.5946 -3.96376 
-35.6463 22.4821 -4.1482 -35.2392 22.037 -4.44518 -35.0606 21.5858 -4.57852 
-34.3425 21.6999 -5.11734 -34.0238 21.9085 -5.31966 -33.5872 21.8638 -5.55691 
-32.8657 21.7521 -5.88702 -32.3315 21.7422 -6.10736 -32.0444 22.161 -6.19878 
-31.5204 21.6939 -6.29463 -31.4336 21.4025 -6.31218 -31.0521 21.785 -6.28931 
-30.8261 21.4917 -6.26355 -30.454 21.0865 -6.15302 -30.4282 20.962 -6.16845 
-38.1137 21.3218 -0.937291 -38.1011 21.0747 -0.759366 -38.0989 21.6648 -1.25615 
-38.1055 22.1581 -1.58169 -37.6317 22.2724 -2.41193 -37.6307 22.6327 -2.55693 
-36.9251 22.684 -3.17752 -35.1452 22.2272 -4.52668 -34.5982 21.6829 -4.94036 
-33.5889 22.2803 -5.56425 -33.1587 22.1962 -5.78743 -32.6824 22.055 -5.9785 
-32.2935 22.5264 -6.12662 -31.6288 22.0295 -6.27981 -31.2903 22.2863 -6.27802 
-30.6327 21.8005 -6.22466 -30.4332 21.5164 -6.16572 -30.2283 21.083 -6.04236 
-38.1364 21.3415 -0.408801 -38.1097 21.0786 -0.181323 -38.1298 21.9382 -1.36207 
-38.1249 22.475 -1.76845 -37.9483 22.275 -1.96845 -37.4401 22.6957 -2.76484 
-37.2057 22.7735 -2.99094 -36.8224 22.898 -3.3262 -36.5129 22.8641 -3.53824 
-35.9275 22.862 -3.97389 -35.5926 22.879 -4.2357 -35.42 22.291 -4.31989 
-34.8448 21.8675 -4.76728 -34.6515 22.0853 -4.90444 -34.2721 22.1943 -5.16637 
-33.1546 22.4683 -5.80801 -32.8276 22.4828 -5.94956 -31.8564 22.4705 -6.23164 
-31.827 22.1072 -6.25192 -31.4255 22.0289 -6.29196 -30.8961 22.262 -6.26063 
-30.831 21.883 -6.26453 -30.2366 21.5496 -6.07448 -38.1372 21.3548 -0.166427 
-38.1745 21.6025 -0.717124 -38.1736 21.7529 -0.978957 -38.194 21.9844 -1.16279 
-38.2559 22.3435 -1.36491 -38.2474 22.521 -1.55697 -38.0368 22.5451 -1.97912 
-37.8299 22.3144 -2.1647 -37.7863 22.4647 -2.30223 -37.8484 23.0542 -2.56138 
-36.228 22.9091 -3.76448 -34.9123 22.5526 -4.72102 -34.6593 22.2839 -4.90124 
-34.0103 22.1674 -5.33858 -32.8011 22.8939 -5.96354 -32.121 22.6723 -6.18133 
-31.5415 22.4804 -6.26898 -31.1199 22.4735 -6.28215 -30.6301 22.2396 -6.21587 
-30.4272 22.0505 -6.15843 -30.0501 21.2642 -5.94627 -30.0704 21.069 -5.94976 
-38.0877 21.0849 0.0209037 -38.2097 21.7989 -0.16598 -38.2356 21.8678 -0.366359 
-38.2732 22.804 -1.75907 -37.8543 22.7249 -2.35931 -37.4733 23.0654 -2.90271 
-37.2092 23.1485 -3.13949 -36.5727 23.0791 -3.57092 -36.0802 23.1449 -3.93116 
-35.7714 23.0697 -4.1421 -35.2207 22.8029 -4.52066 -34.2526 22.5094 -5.19847 
-33.855 22.6124 -5.43147 -33.5313 22.4562 -5.60967 -32.3116 22.8619 -6.13965 
-31.8282 22.675 -6.24229 -30.8215 22.5215 -6.27465 -30.2324 22.0581 -6.07314 
-30.0292 21.5702 -5.95653 -29.8699 21.0745 -5.76133 -38.051 21.2923 0.341537 
-38.0173 21.073 0.388099 -38.1704 21.7288 0.0362044 -38.2303 21.8813 -0.618558 
-38.2462 22.0666 -0.965218 -38.3032 22.3032 -1.1577 -38.4236 22.7404 -1.36576 
-38.4221 22.8988 -1.55306 -38.271 23.0656 -1.988 -38.0204 22.7649 -2.16894 
-38.0413 23.0464 -2.34367 -37.8237 23.2765 -2.67898 -36.9722 23.3435 -3.39121 
-35.5673 23.0659 -4.28297 -35.2388 23.1866 -4.56149 -34.7891 22.8744 -4.83299 
-34.3174 22.8271 -5.17963 -34.0098 22.4622 -5.34426 -33.5067 22.8793 -5.63245 
-33.0907 22.8858 -5.84401 -32.4989 23.0575 -6.10874 -31.9317 22.8775 -6.25154 
-31.4371 22.7206 -6.30202 -31.1302 22.6594 -6.31038 -30.5271 22.4779 -6.231 
-30.4256 22.2466 -6.1683 -30.0327 21.8743 -5.96042 -29.8261 21.3706 -5.76652 
-37.9647 21.0778 0.57396 -38.1323 21.7861 0.290338 -38.2769 22.2032 0.0752612 
-38.2909 22.0729 -0.436561 -38.3299 22.3025 -0.976527 -38.4454 22.7147 -1.22923 
-38.4176 23.1055 -1.74465 -38.0619 23.2621 -2.43229 -37.3851 23.4286 -3.09467 
-36.8153 23.5347 -3.56786 -36.4454 23.3902 -3.77291 -35.5873 23.3013 -4.34214 
-35.0238 23.1262 -4.70495 -34.2296 22.8719 -5.25583 -34.0609 22.8862 -5.36747 
-33.7719 22.7933 -5.48756 -32.9804 23.0712 -5.91552 -32.0419 23.0598 -6.26016 
-31.6359 22.7224 -6.27648 -31.0287 22.976 -6.38589 -30.5792 22.7813 -6.30582 
-30.2281 22.275 -6.10499 -29.8957 22.0907 -5.89562 -29.7908 21.8796 -5.78858 
-29.8117 21.6869 -5.78827 -29.5798 21.0694 -5.43407 -38.2895 22.1205 -0.177388 
-38.5829 23.2702 -1.37771 -38.4004 23.2813 -1.91343 -38.2741 23.3318 -2.16184 
-38.0115 23.5081 -2.56078 -37.5516 23.5952 -3.00295 -37.167 23.6739 -3.34342 
-36.1769 23.6467 -4.04781 -35.8589 23.4706 -4.20171 -35.0603 23.4476 -4.76767 
-34.8369 23.0803 -4.82173 -34.3981 23.0629 -5.13235 -33.8069 23.0968 -5.49752 
-33.3931 23.0795 -5.7108 -32.9946 23.3313 -5.96689 -32.0994 23.317 -6.3162 
-31.849 23.2211 -6.35418 -31.5805 23.0692 -6.3683 -31.2221 23.0205 -6.3894 
-30.8274 22.971 -6.3778 -30.3962 22.7021 -6.25639 -30.241 22.5088 -6.16868 
-29.8664 22.2616 -5.92348 -29.6095 21.6698 -5.59242 -29.5986 21.43 -5.54502 
-37.8836 21.3411 0.922313 -37.7947 21.0762 1.02756 -37.9943 21.7566 0.795419 
-38.1231 22.0695 0.554633 -38.42 22.5781 0.0267459 -38.4198 22.4611 -0.283011 
-38.3775 22.3326 -0.569798 -38.528 22.8228 -0.95951 -38.5895 23.0485 -1.05575 
-38.2007 23.4999 -2.34023 -37.8171 23.4777 -2.73779 -36.8702 23.9874 -3.64725 
-36.5332 23.6884 -3.8174 -35.7958 23.7891 -4.3811 -35.4166 23.5011 -4.54487 
-34.7233 23.2643 -4.93306 -34.1166 23.2909 -5.33642 -34.0537 23.084 -5.3718 
-33.3878 23.2741 -5.7497 -32.5764 23.2484 -6.13104 -31.1457 23.4557 -6.53555 
-30.4983 23.1239 -6.38929 -30.2277 23.4654 -6.45276 -30.0282 22.475 -6.08486 
-29.645 22.0875 -5.73725 -29.6282 21.875 -5.65656 -29.4075 21.445 -5.33973 
-29.3833 21.0764 -5.20903 -37.7581 21.3407 1.21904 -38.2219 22.2873 0.423242 
-38.3948 22.6097 0.197885 -38.4737 22.6085 -0.748464 -38.6324 23.2732 -1.06126 
-38.4894 23.475 -1.76845 -38.4244 23.4731 -1.94831 -38.3435 23.675 -2.16845 
-38.2253 23.6741 -2.35776 -38.0659 23.8732 -2.5718 -37.6383 24.0703 -3.01036 
-37.2967 23.8484 -3.27658 -36.4195 24.0443 -4 -35.6161 23.9365 -4.56062 
-35.2511 23.829 -4.77842 -34.8133 23.5057 -4.94636 -34.4358 23.4088 -5.15879 
-33.7664 23.2943 -5.54587 -33.2306 23.5713 -5.94219 -32.7896 23.4669 -6.11227 
-32.4282 23.475 -6.25942 -31.672 23.3695 -6.43726 -31.406 23.4721 -6.51867 
-30.8095 23.6145 -6.57393 -30.0282 23.075 -6.30031 -30.0117 22.7439 -6.18491 
-29.7199 22.414 -5.92058 -29.4341 22.2712 -5.69134 -29.4631 21.8548 -5.5223 
-29.389 21.6777 -5.395 -29.2556 21.2936 -5.08465 -37.5998 21.0928 1.43359 
-37.982 22.0391 0.972236 -38.1417 22.2367 0.637666 -38.4894 22.8719 0.0680743 
-38.5094 22.7714 -0.262139 -38.5139 22.7182 -0.567965 -38.6192 23.0786 -0.791011 
-38.5732 23.475 -1.16845 -38.5486 23.475 -1.56845 -37.9037 24.075 -2.76845 
-37.8281 24.075 -2.83987 -36.9604 24.1668 -3.60479 -36.6484 24.2223 -3.87934 
-36.1978 24.0459 -4.16858 -36.0431 23.9697 -4.26355 -35.9414 24.2826 -4.42313 
-35.0274 23.8907 -4.95363 -34.1328 23.5099 -5.38253 -33.5541 23.458 -5.71515 
-32.3486 23.6913 -6.3736 -31.9483 23.7105 -6.49594 -31.2364 24.0741 -6.7096 
-31.0283 23.8744 -6.65442 -30.5796 23.6652 -6.56832 -30.4282 23.475 -6.48986 
-30.0371 23.2586 -6.35417 -29.8282 22.675 -6.10341 -29.418 22.0641 -5.5716 
-29.238 21.5232 -5.16047 -29.1479 21.0742 -4.83274 -37.7312 21.683 1.40923 
-37.866 21.813 1.14941 -38.3404 22.6341 0.419063 -38.3945 22.8815 0.515388 
-38.6284 23.2753 -0.784873 -38.6281 23.3186 -0.968453 -38.5729 23.475 -1.36845 
-38.4605 23.675 -1.76845 -38.4281 23.675 -1.96768 -38.3212 23.875 -2.16845 
-38.228 23.875 -2.36688 -38.069 24.0751 -2.57218 -37.689 24.2787 -2.97767 
-37.4934 24.2757 -3.16782 -37.4187 24.2813 -3.23168 -36.8076 24.3166 -3.76784 
-36.3308 24.4904 -4.18139 -35.5895 24.4764 -4.72057 -35.4185 24.1328 -4.75723 
[...]
CELL_DATA 7242
FIELD FieldData 1
Area 1 7242 double
0.018634767918 0.012667595198 0.014096163703 0.013858954586 0.0091421396452 0.071751655537 0.051907384873 0.028147100574 0.073922378101 
0.056987434283 0.031596395477 0.030018397861 0.054652943068 0.04034436475 0.064232731168 0.034152694697 0.033957060226 0.032992347945 
0.011781653831 0.016604901355 0.026519973151 0.051530810099 0.026933634854 0.11701546093 0.072628836581 0.10759216594 0.045571715868 
0.036994188967 0.039828328427 0.036221301489 0.030898793245 0.047674577871 0.047306922601 0.070815283032 0.1348983444 0.075765253291 
0.13152438765 0.11660060114 0.047233315997 0.087170525485 0.04548994428 0.018436784783 0.049490960843 0.027670466936 0.087719020849 
0.031315398612 0.027910809171 0.090606643692 0.084623584788 0.057581429357 0.055627688205 0.060168878053 0.087064240455 0.079756675361 
0.068824735218 0.044675852994 0.055817267043 0.052753726418 0.021673778852 0.03590092922 0.018827511042 0.034153531833 0.093174588662 
0.047512784703 0.078495964115 0.018064500677 0.024432122269 0.020894899549 0.053176897997 0.092137257508 0.087336854293 0.066589214557 
0.059741181215 0.035630249562 0.036395454357 0.076185397227 0.061796829105 0.056324674751 0.044150652069 0.094896677685 0.037077828239 
0.062423131035 0.038056245292 0.044833947617 0.038844200499 0.038644659134 0.036875558952 0.070552300206 0.10236969716 0.072712904054 
0.046437843783 0.060292878208 0.055001532725 0.051315315207 0.040012925478 0.12402595616 0.032604499803 0.038485681161 0.021753343648 
0.055972791188 0.046268366434 0.050440738366 0.058886131584 0.038218990324 0.029776075121 0.040959661983 0.063307416107 0.058684499169 
0.099217265077 0.10709051155 0.056348682561 0.04925658044 0.034112337105 0.041506301103 0.041685065304 0.08948774079 0.044340951465 
0.058329855908 0.041702714635 0.05472233355 0.035906300802 0.089904600574 0.049807450955 0.050409630755 0.034450311116 0.047410496874 
0.076286112366 0.043435672941 0.026378261629 0.011875239371 0.02604946434 0.029220364881 0.039257207916 0.072198553819 0.040719233219 
0.092963797433 0.036161853095 0.030162113261 0.045875506354 0.039619080644 0.039777031727 0.040864863109 0.077034518155 0.076316359665 
0.086271214692 0.20476381221 0.030891100083 0.09700195705 0.10688202436 0.062956957055 0.054047726129 0.087374633323 0.054988997462 
0.082694884233 0.087680098939 0.055014085651 0.080625717945 0.083293335448 0.049234074916 0.066911307517 0.05911385651 0.03008091167 
0.040662882245 0.062686043752 0.051085058552 0.04407218186 0.042838606342 0.015931830013 0.076915413475 0.067297988259 0.044233809718 
0.038495876621 0.041284492726 0.03094677233 0.02816903088 0.032362265122 0.045888165753 0.035191332479 0.060322717557 0.045901903132 
0.04005689038 0.053592783871 0.056177067495 0.065324186487 0.01515485926 0.036694786676 0.10578199652 0.12713196909 0.060751186056 
0.063124398636 0.08436230751 0.10354968729 0.11042241086 0.044694042004 0.065849445418 0.094721295443 0.10259440616 0.074930619544 
0.05989930108 0.053644096763 0.034155676111 0.055843276101 0.056315176053 0.096109852109 0.043775959621 0.039377660107 0.045532854427 
0.04642258957 0.058685997195 0.033538558315 0.073329612525 0.063813988893 0.031444238758 0.049985510878 0.044385544922 0.0327706709 
0.029201266487 0.028853843423 0.040354203414 0.045173519371 0.068200494153 0.040770336262 0.045099999884 0.041832857871 0.043429859269 
0.045120338719 0.057571472702 0.065835643048 0.065664448991 0.12127163871 0.054699076497 0.10928465798 0.040872477864 0.060761726049 
0.066594616796 0.1299831802 0.11501421538 0.037965764775 0.039777064531 0.048490505604 0.026345824348 0.039066968026 0.045318395358 
0.044602099841 0.056672684061 0.057743015318 0.049391830336 0.018016823679 0.028210792937 0.054534852507 0.088215013729 0.054094168542 
0.042059231872 0.043567091459 0.041888081566 0.041270653636 0.042926970695 0.055717903756 0.014993735527 0.02791189184 0.040606628513 
0.060102588939 0.098534192509 0.060943490374 0.094437246238 0.041409717733 0.041321753258 0.049244676505 0.042909565079 0.13090977484 
0.12941994902 0.09131579859 0.024429025591 0.04622152816 0.049886628038 0.096185369628 0.037104864307 0.073037447369 0.087198392825 
0.031411427644 0.030546271588 0.057833916023 0.065142980391 0.040067979088 0.037041867942 0.050435809076 0.046772185408 0.054043306764 
0.036429046223 0.026861685933 0.040925645997 0.063084237266 0.045928313625 0.05530700064 0.03646793184 0.044714106918 0.031609066684 
0.036296737868 0.044514010129 0.046988816572 0.071447425133 0.055685398944 0.034736288773 0.050907267164 0.058595042209 0.065799979387 
0.087865732909 0.088602455114 0.06639465626 0.048243283495 0.023458945429 0.090870051407 0.079954961587 0.072307518642 0.14741919282 
0.015581656181 0.041824276332 0.025949393175 0.038216075459 0.089893759322 0.06513224425 0.04870994754 0.039155310799 0.03074834556 
0.032299681767 0.051392404682 0.028335041278 0.040355393381 0.033528988698 0.020610707835 0.020885731251 0.05868262274 0.036321204991 
0.043523140986 0.041150005266 0.021383759479 0.08711411653 0.083392813129 0.05096547368 0.018730688711 0.026399809407 0.05723242389 
0.025403297458 0.030805302817 0.046092519253 0.030116388583 0.041729196359 0.036831876509 0.04435878918 0.061172646853 0.041425720735 
0.032986091524 0.038963409179 0.097931721774 0.058399625595 0.066231108315 0.074612218087 0.091672153283 0.05455536146 0.030144028155 
0.03749494078 0.050162972277 0.077093811286 0.16952651315 0.019926654866 0.059664415271 0.040503702525 0.041258751683 0.062536142793 
0.097185141053 0.02876789458 0.045089413004 0.047834396302 0.037724013699 0.0223190897 0.02590894111 0.024241678626 0.028599214245 
0.057461369087 0.044897928881 0.024991471982 0.022823511652 0.038742884176 0.045136398178 0.043778761 0.065292572922 0.053890334359 
0.06205127516 0.042629636529 0.043249841677 0.051657211787 0.066453706187 0.040117984683 0.038461172623 0.05254469751 0.058422139861 
0.029889354421 0.065384473483 0.040989850954 0.042269927641 0.066019865081 0.078463388768 0.057490006084 0.084892736839 0.10057837565 
0.080672333922 0.050969066664 0.042766332896 0.021688870017 0.066871873029 0.015803617035 0.0364661101 0.033034800823 0.047135720709 
0.046458567905 0.043376460958 0.0689019843 0.064306432098 0.028258889235 0.060211517031 0.035821650619 0.054211601006 0.033717725309 
0.04643477831 0.056989346128 0.026679478285 0.036082802616 0.025405072584 0.044259817174 0.033116843064 0.031969662908 0.025607690475 
0.044630346466 0.060908730617 0.065043155285 0.18216900396 0.090311179664 0.053114357 0.049695879009 0.058812402563 0.074756955483 
0.078283959353 0.050000502546 0.035163461726 0.061289437436 0.036533982114 0.035832385116 0.027617162551 0.035780057864 0.051226740293 
0.096547920917 0.061809815738 0.064815149329 0.090227001285 0.064565506503 0.058235770495 0.064114703388 0.061728847342 0.024159464231 
0.055153331578 0.05703354871 0.019939682643 0.03133758214 0.042345419967 0.047951175572 0.045536433085 0.059243766804 0.041759457422 
0.052570499966 0.031464921442 0.05299515738 0.060727623581 0.046103286166 0.050211319385 0.052093922889 0.080404222259 0.031896585818 
0.026893815492 0.044178856997 0.026002303277 0.031485398809 0.020263049218 0.028767109692 0.03950900945 0.052016727141 0.056385665425 
0.04315369234 0.095503523107 0.079594411988 0.046607678538 0.035536978318 0.06275047889 0.048258176231 0.063642346608 0.06103313548 
0.038169605818 0.036649376625 0.05673931529 0.026746769068 0.035827221539 0.025697645641 0.047858047873 0.093345891141 0.05123219517 
0.059995893728 0.086588442669 0.081920137563 0.07308461068 0.075325926001 0.074397806451 0.079486056593 0.039926016396 0.051281011018 
0.062488789333 0.029430548032 0.029118149855 0.046817840026 0.042625653988 0.063714333192 0.042862203324 0.054370974594 0.028786025554 
0.03557493789 0.080863552994 0.06034334792 0.11167083321 0.10994772184 0.033847960569 0.11549259812 0.042852737695 0.032477655442 
0.032788363909 0.04641787283 0.02276951779 0.021661751024 0.035883490454 0.033621215841 0.045925084575 0.059072675695 0.067421131012 
0.065622076044 0.021638658415 0.071622090269 0.025781849804 0.049134505733 0.058541595918 0.036814774277 0.047319244898 0.032844890637 
0.030501279428 0.033169697011 0.021467421001 0.018660377667 0.043308947742 0.019727250471 0.051745600821 0.080541223806 0.077072610074 
0.096880308259 0.057899118975 0.093212167613 0.064851589113 0.057578185221 0.067374825847 0.070823842199 0.087504125428 0.061429766935 
0.066767349161 0.050346348502 0.064744160254 0.041536048567 0.040410465982 0.039312394269 0.047247253858 0.047211712085 0.045175665313 
0.047460122831 0.087412360169 0.047251087176 0.083373387919 0.063595712731 0.067694924246 0.037784135092 0.01757594115 0.069022028851 
0.028124522296 0.044572791434 0.040258834084 0.030701409081 0.022652970216 0.027599364785 0.030510766798 0.031159470425 0.049297268398 
0.068630460671 0.092982926958 0.049254381623 0.03918740313 0.04063743314 0.041981625262 0.062498798827 0.048366837587 0.048971992177 
0.04692212771 0.027210026477 0.012199890267 0.020500645841 0.020657654324 0.021055579665 0.019306836862 0.022026478798 0.022422414064 
0.026268551399 0.025911799488 0.031329927484 0.026471043567 0.068443515032 0.12154793919 0.027437111324 0.038280600241 0.074625876943 
0.063263029596 0.039573989651 0.059640724064 0.11543055912 0.058151604109 0.03084832051 0.071089438012 0.067909604425 0.077474275445 
0.024842186787 0.040728203629 0.04156897884 0.060720016741 0.039626295119 0.041426833399 0.038567281349 0.084792598811 0.062944864252 
0.051486881033 0.076209554471 0.057442118029 0.027006586018 0.025851268415 0.035094468497 0.020986206218 0.022969451239 0.022389729388 
0.03667847365 0.020781825113 0.042774387233 0.045864842443 0.046334845574 0.030947527248 0.030079307684 0.045026959 0.025959479977 
0.046922872887 0.054464089027 0.062717685898 0.076007163706 0.060814194511 0.15786011143 0.028534326356 0.046603146476 0.036448358875 
0.048740201206 0.041168940157 0.030110020445 0.0061940816069 0.019725424814 0.017141605133 0.023486461881 0.023317894725 0.020387099482 
0.021902913366 0.022034452514 0.026373670863 0.013954710397 0.011346746412 0.028067297102 0.028376379791 0.021740732431 0.069269093313 
0.038907455527 0.046226544786 0.080744572067 0.037131501884 0.091772044704 0.050971045506 0.064377879219 0.058590997036 0.040215067542 
0.092759802099 0.02099448683 0.041383066969 0.057926486376 0.053229092509 0.030173827154 0.042318349537 0.037672521337 0.041571329662 
0.03880048787 0.063383983692 0.022964815736 0.021489058506 0.02005523213 0.027222009144 0.013503184837 0.015918150896 0.023711011117 
0.021994290287 0.02569239435 0.021199432493 0.023466638855 0.020119121877 0.030700023376 0.054245169657 0.017980930579 0.044267649058 
0.047355656418 0.037177721747 0.019458358148 0.019261553346 0.021851588097 0.034583728749 0.029093112975 0.022560663953 0.018025700076 
0.10013540355 0.08026016037 0.053359371949 0.071877244896 0.089216921344 0.066230398309 0.027835265158 0.021135146905 0.050105482096 
0.052677591511 0.022217569518 0.042899168104 0.017803327081 0.017336711408 0.021067134488 0.021284253799 0.0062816993242 0.0063395804108 
0.022854741026 0.023167489984 0.023290734748 0.012155934804 0.02753497046 0.020226701447 0.020668224959 0.0097267362968 0.025999071059 
0.052382785031 0.046055086936 0.060319312051 0.023814733132 0.13125438949 0.12812237352 0.044820727596 0.083557081595 0.068644110964 
0.068808692711 0.076639835054 0.062802655069 0.060231901224 0.056340754358 0.031258859646 0.042706920604 0.045392539465 0.058899036932 
0.054003813704 0.030065457164 0.055094557694 0.018985999773 0.02011850742 0.02093184042 0.021285916598 0.020272169074 0.0092632075364 
0.015823041737 0.022698174729 0.0099024021296 0.028066670289 0.013073164256 0.021340591791 0.019330235458 0.024246692251 0.015390397822 
0.014946806378 0.025271053531 0.042173884577 0.022010556651 0.03312040189 0.017783077306 0.020714896144 0.018433364005 0.053654438403 
0.019866893072 0.026526988233 0.058173112605 0.079684055001 0.058167685118 0.068145744187 0.036687485784 0.04388328834 0.049690142268 
0.025405031592 0.016862204461 0.020796098967 0.032212398728 0.028123991035 0.071231051623 0.023828027722 0.017346630171 0.021217392171 
0.021338879071 0.02451791986 0.022976769587 0.014236109488 0.014235862725 0.015105876566 0.015185191476 0.027288467443 0.026133992246 
0.0085070951212 0.033109378956 0.027652199587 0.043831295345 0.031831302607 0.057951835338 0.024573153918 0.095081163447 0.09832394921 
0.053751909539 0.062571908716 0.041045971678 0.068250066354 0.035405651888 0.029593707006 0.038433400185 0.043290656327 0.044726069008 
0.029243086492 0.060774397588 0.0194991927 0.020141946413 0.022004600436 0.02386717058 0.022590346467 0.016147834508 0.0072361429977 
0.0094758457024 0.020484047307 0.011559326616 0.025789473515 0.023374762877 0.013719975157 0.020713475023 0.02677656804 0.024241107347 
0.015451925795 0.024656419698 0.029097764996 0.023529545068 0.029105063042 0.025064470746 0.046361381253 0.04036261999 0.026051846319 
0.022860791681 0.028804155861 0.028539807053 0.031305070854 0.05563801108 0.042259796987 0.05578633332 0.085688108401 0.027009199472 
0.031991600868 0.088964206711 0.032218377492 0.027245296626 0.015063285968 0.02019389832 0.042748286992 0.034079354392 0.031883977718 
0.058933288378 0.037123372645 0.028417368606 0.0448572698 0.047003394669 0.010874895052 0.010333577402 0.020886963999 0.01434838071 
0.015016206374 0.00942342035 0.027861023565 0.0076303365146 0.0084531712645 0.0076554615787 0.026110653327 0.025934762746 0.015659940024 
0.027763017153 0.028755549651 0.026079304867 0.02351579712 0.047638488425 0.066948197168 0.083166074191 0.036767180074 0.031210918719 
0.067030875043 0.074164027338 0.057999896476 0.042703825956 0.081768417629 0.052750235926 0.061839128698 0.052236558947 0.020412086083 
0.022737125569 0.020964612987 0.019703079724 0.013784895567 0.0055102920192 0.024821250978 0.02185197862 0.029493104467 0.022080501881 
0.02118242714 0.025997316871 0.024571085409 0.030492453211 0.023682216526 0.028842878002 0.023589789937 0.02710811871 0.025095586612 
0.027218298807 0.020773048259 0.028572574179 0.033464428928 0.035934429828 0.033176348716 0.029546033758 0.030786867255 0.023181233933 
0.033606168911 0.04431881498 0.046679307793 0.067064201724 0.074908319455 0.094652606983 0.054289788047 0.058811456174 0.063627633878 
0.040415272236 0.036304838751 0.033155249744 0.017752867434 0.019348345134 0.020936726425 0.030820013627 0.027744616623 0.027138274064 
0.038807079112 0.036621859731 0.022508597071 0.025564382146 0.021123583296 0.031112559423 0.0056706734736 0.022003632083 0.021615921835 
0.022649004398 0.018340698632 0.019109831766 0.014586022976 0.026725902077 0.033619226671 0.029370842474 0.025915453764 0.025167553524 
0.013434369049 0.014045196849 0.021472868047 0.031882365114 0.11179944278 0.066982529167 0.066953399028 0.051373191935 0.050701771567 
0.024106000252 0.053634471422 0.076344801751 0.097308473167 0.052044459169 0.02004902613 0.023790242221 0.0056954349846 0.010208904364 
0.0083154233688 0.010346479948 0.029353660948 0.027496489792 0.022514084002 0.021862686596 0.028987651171 0.0023089476207 0.02369541413 
0.031368014857 0.029712713324 0.029710130005 0.030056594216 0.028914324728 0.031665750218 0.03419877265 0.037104180116 0.046770308892 
0.03209214792 0.018154975315 0.016543179138 0.034294193528 0.09779603529 0.091550423375 0.059830653579 0.051105128467 0.065930025796 
0.035540090599 0.040034919337 0.047189435017 0.0084682097163 0.022409125041 0.049157812288 0.028957420977 0.027211816767 0.022428104412 
0.041289855172 0.034513010234 0.024560039642 0.019855287242 0.015198284792 0.029698796986 0.022969262887 0.028248003812 0.019506275984 
0.049174101396 0.013205325782 0.022007103572 0.022160958042 0.018087306615 0.020009471654 0.026002344454 0.027494836885 0.013633463591 
0.03149955551 0.032505030344 0.017627395518 0.026757644846 0.026128662469 0.018212297202 0.013804858205 0.01476640668 0.021118255558 
0.037856993313 0.043358656863 0.069040992877 0.094287995348 0.086811848835 0.036581174177 0.041767779686 0.048938084619 0.075622283598 
0.073495025456 0.0338916444 0.036160263177 0.020326252152 0.020144124616 0.024548235255 0.0099922454961 0.017222607167 0.045904660748 
0.015268360655 0.022889658559 0.02311804211 0.026983445913 0.026543609666 0.023099581263 0.025244716331 0.032188571092 0.0026891690554 
0.024776116718 0.022246925845 0.024217402348 0.038673045796 0.01672714022 0.027781038351 0.030125905621 0.028558786998 0.035110763582 
0.031624430035 0.031650007454 0.051360079118 0.032971147175 0.019031883427 0.024760752576 0.03625588743 0.020629058224 0.048661204899 
0.071733907218 0.058654857501 0.087569630044 0.049295644398 0.062031399048 0.039875687484 0.041557645271 0.041477250686 0.018583538949 
0.018972393641 0.013129095051 0.03940075233 0.027628865482 0.04525441123 0.030659055931 0.044177388386 0.036610185054 0.022805144265 
0.028246904328 0.0274716445 0.013442503318 0.034888003845 0.025775782287 0.026944421441 0.021290809562 0.032887982659 0.015708493544 
0.043914884741 0.024705220027 0.025824520367 0.023109665064 0.023605733355 0.034862635107 0.013111820108 0.014105827731 0.018545002177 
0.012027390305 0.020165938083 0.013627810172 0.013056556862 0.023539166833 0.027257251191 0.013437019055 0.029817047456 0.022751461607 
0.062249288501 0.053661160358 0.064797158322 0.067758845789 0.057297069201 0.077480896806 0.1049005115 0.035809207356 0.047366612594 
0.028020632005 0.020420056037 0.024363396993 0.030662468553 0.04121140331 0.041744410142 0.068697667789 0.022622950245 0.026043442801 
0.02940575657 0.023699231515 0.029610374559 0.028513842557 0.021316404996 0.028290871653 0.030527009183 0.019840915652 0.029161998947 
0.036204987901 0.028813679803 0.030998731701 0.036985975318 0.040139600325 0.039707982601 0.077528165496 0.029918287881 0.029902521613 
0.020331533101 0.032784964165 0.13606648893 0.035119634728 0.060288200177 0.039346127391 0.066054056712 0.052077675034 0.046302444013 
0.03275256326 0.021193228152 0.025420110994 0.020133683406 0.043423073662 0.024286788376 0.052477407621 0.056350944528 0.025256066269 
0.045022948784 0.038891445065 0.026211505855 0.029519544829 0.023627110882 0.020242902784 0.021185486492 0.014469126161 0.025407269648 
0.031596126763 0.02802670719 0.023983685356 0.025547831547 0.024502502603 0.022635724091 0.027354662168 0.036866562366 0.024544258227 
0.024610421958 0.013762617676 0.039253126527 0.053996581648 0.012970952482 0.019209402581 0.014841739332 0.011870542208 0.027847079893 
0.023542642696 0.024906637966 0.047182989985 0.1615663458 0.074933635393 0.059871412342 0.088152796103 0.079478787071 0.060816016638 
0.060461106188 0.069501298776 0.046740837141 0.026517463757 0.020535060354 0.020059601181 0.019201833493 0.01090365313 0.026977463046 
0.04311034961 0.052047755835 0.022298810712 0.021028728821 0.02306917091 0.032154542427 0.031976548866 0.024559912503 0.025567155643 
0.027828431592 0.0093238164143 0.0079377718045 0.02276650864 0.017708513875 0.03682975609 0.026741276307 0.022883655023 0.021441187943 
0.030104736952 0.031085087437 0.051180235406 0.10841611259 0.11915455688 0.032572019506 0.028510363982 0.037048170505 0.025177362552 
0.032079935123 0.033867000049 0.01400369015 0.048146516055 0.038384231869 0.074826641674 0.075900950508 0.061369315232 0.045842204107 
0.030321624691 0.010495338239 0.02648994643 0.046992173598 0.068439435397 0.023973981223 0.028511399766 0.047013283362 0.026028412386 
0.066388460592 0.060097095232 0.011883299696 0.01975223824 0.020905346893 0.019082387325 0.010222944904 0.016801620308 0.012178537473 
0.034951962 0.021737974783 0.01488309512 0.014170579163 0.023427880882 0.02760627116 0.027057214826 0.0298079046 0.039821128224 