# vtk DataFile Version 4.2
vtk output
ASCII
DATASET POLYDATA
POINTS 3894 float
-32.6253 21.2484 -5.98855 -32.2421 21.0253 -6.14098 -32.5294 21.0223 -6.02799 
-37.2421 21.1077 -2.42915 -37.3862 21.2243 -2.23038 -37.1647 21.2143 -2.51767 
-37.0043 21.4846 -2.72237 -36.8657 21.2398 -2.85477 -36.4777 21.5594 -3.24013 
-36.2458 21.2297 -3.44021 -36.5097 21.2244 -3.1902 -35.8293 21.2242 -3.79866 
-35.8428 21.0276 -3.80775 -34.0328 21.2306 -5.1968 -33.7319 21.2248 -5.40022 
-33.8421 21.0253 -5.3286 -33.4072 21.2238 -5.60421 -33.4319 21.026 -5.59969 
-33.2421 21.0253 -5.69728 -32.8421 21.0253 -5.8888 -32.2559 21.3394 -6.14733 
-31.8434 21.0279 -6.28163 -31.8396 21.3474 -6.2834 -31.6402 21.0272 -6.34008 
-31.4421 21.6253 -6.36673 -31.4416 21.0257 -6.37124 -37.2539 21.7459 -2.47766 
-36.801 21.6576 -2.93505 -36.1382 21.4837 -3.54487 -35.489 21.2272 -4.06485 
-34.0325 21.0272 -5.21316 -33.7743 21.4332 -5.39679 -33.0345 21.2263 -5.80228 
-33.0452 21.0264 -5.80055 -32.6123 21.452 -6.00502 -31.6525 21.8431 -6.32976 
-31.2409 21.0287 -6.38112 -31.0503 21.8229 -6.37317 -31.0539 21.0235 -6.37678 
-30.8729 21.025 -6.36185 -37.5722 21.6046 -2.00263 -37.6255 21.2252 -1.80315 
-37.4472 21.8053 -2.22421 -37.2305 22.0475 -2.53916 -37.0025 22.1885 -2.79725 
-36.602 21.9698 -3.15885 -36.4114 22.2984 -3.3614 -35.8353 21.6875 -3.83562 
-35.5289 21.4429 -4.05788 -34.0483 21.5746 -5.22361 -33.4392 21.4933 -5.60935 
-33.034 21.4938 -5.8182 -32.2568 21.755 -6.15042 -31.8387 21.8979 -6.29172 
-31.4554 22.0786 -6.35037 -31.246 21.7251 -6.3776 -30.8364 21.9797 -6.35756 
-30.6365 21.5561 -6.33345 -30.5785 21.0301 -6.30691 -37.6408 21.5161 -1.84647 
-37.462 22.1095 -2.27318 -36.1055 21.9357 -3.61265 -35.6514 21.7247 -3.98553 
-35.3029 21.2274 -4.23744 -35.1256 21.6386 -4.43124 -35.0611 21.2274 -4.44301 
-34.3387 21.454 -5.00324 -33.8209 21.8291 -5.38874 -32.651 22.2709 -6.01214 
-32.0338 21.9588 -6.23966 -31.8276 22.5219 -6.28528 -31.5908 22.4352 -6.32663 
-31.2445 22.386 -6.35529 -30.96 22.2356 -6.35567 -30.406 22.0261 -6.2842 
-30.2431 21.3254 -6.21925 -30.3814 21.0312 -6.24855 -37.7694 21.4283 -1.48457 
-37.7648 21.2253 -1.42915 -37.7127 21.9965 -1.85525 -37.4166 22.4156 -2.40905 
-37.0525 22.5409 -2.82062 -36.6643 22.3625 -3.14955 -36.0378 22.1857 -3.68463 
-35.3948 21.8745 -4.18972 -35.2514 21.4641 -4.30049 -34.6461 21.4633 -4.78923 
-34.6074 21.2291 -4.79989 -34.8421 21.1128 -4.62915 -34.3985 21.2274 -4.94794 
-34.3573 21.8042 -5.02839 -33.3987 21.7888 -5.64335 -33.0056 21.9829 -5.84803 
-32.2493 22.1768 -6.17579 -30.64 22.0231 -6.33297 -30.2421 21.0253 -6.1983 
-37.8375 21.2221 -1.13723 -37.7635 21.7018 -1.62716 -37.6487 22.1992 -2.02978 
-37.6145 22.4273 -2.16391 -37.2335 22.5603 -2.64586 -36.4314 22.6045 -3.39021 
-36.1152 22.6608 -3.66128 -35.6094 22.1455 -4.02675 -35.1956 22.1576 -4.37676 
-34.8982 21.7042 -4.62636 -34.0534 22.1396 -5.23449 -33.5125 22.159 -5.57347 
-32.8468 22.7718 -5.92977 -32.6141 22.838 -6.03664 -32.1754 22.5869 -6.20313 
-31.571 22.6317 -6.34486 -31.0421 22.4253 -6.36322 -30.5637 22.2247 -6.32475 
-30.2275 22.0226 -6.22915 -30.0368 21.3922 -6.11609 -37.8707 21.441 -1.03629 
-37.8624 21.2397 -0.817767 -37.8394 21.4793 -1.23592 -37.8761 21.9704 -1.41577 
-37.8356 22.0809 -1.62807 -37.8124 22.2095 -1.76439 -37.4451 22.5975 -2.43557 
-37.0649 22.7783 -2.89523 -36.765 22.6465 -3.11406 -35.7465 22.543 -3.93774 
-35.4361 22.295 -4.18701 -34.915 22.046 -4.62809 -34.6283 21.9269 -4.83489 
-34.4156 22.1587 -4.99779 -33.7947 22.0391 -5.41481 -33.2223 22.3847 -5.74236 
-32.1804 22.8339 -6.2198 -31.7047 22.7945 -6.34709 -31.2424 22.6735 -6.39462 
-30.7164 22.4236 -6.35458 -30.1528 22.2259 -6.22901 -30.023 21.989 -6.13633 
-30.0105 21.0272 -6.056 -37.9695 21.7747 -0.51906 -37.8673 21.2238 -0.656849 
-37.9235 21.8214 -1.10468 -37.641 22.6282 -2.22543 -37.4478 22.8934 -2.60246 
-37.2327 22.9685 -2.83937 -36.6491 22.8261 -3.26219 -36.3258 22.817 -3.51574 
-35.9639 22.8248 -3.80316 -35.1312 22.422 -4.43408 -34.3931 22.5017 -5.02915 
-33.8197 22.4156 -5.40389 -33.4423 22.462 -5.63016 -33.1996 22.8328 -5.76175 
-32.8205 23.0372 -5.97852 -31.4478 22.9391 -6.43055 -30.9042 22.7354 -6.42359 
-30.3025 22.4302 -6.31225 -29.883 21.4287 -6.01414 -37.8889 21.4253 -0.0291509 
-37.8608 21.2267 -0.262285 -37.8486 21.2254 0.0693803 -37.9115 21.4485 -0.300369 
-37.9842 21.9271 -0.837297 -37.9918 22.3227 -1.41252 -37.8415 22.4309 -1.82669 
-37.8625 22.6283 -1.91709 -37.6196 22.8849 -2.42564 -36.6201 22.986 -3.34496 
-35.5804 22.8332 -4.11164 -35.3258 22.7038 -4.30969 -34.8757 22.5437 -4.64501 
-34.6631 22.4156 -4.80759 -33.9052 22.8324 -5.35222 -33.4499 22.8328 -5.6233 
-33.1531 23.0261 -5.80699 -32.3304 23.0227 -6.19533 -31.9527 23.0109 -6.32639 
-31.5064 23.184 -6.49315 -31.2193 23.0348 -6.48634 -31.0252 22.9064 -6.46677 
-30.6414 22.6679 -6.40194 -30.4387 22.6311 -6.37882 -29.9288 22.4221 -6.19236 
-29.704 22.213 -6.01713 -29.8586 21.6634 -6.01397 -29.8547 21.0269 -5.92391 
-37.8551 21.527 0.275536 -37.9637 21.7918 -0.231118 -38.0488 22.1248 -0.6323 
-37.9617 22.0186 -1.13312 -37.9468 22.4253 -1.62915 -37.758 22.7931 -2.18362 
-37.6158 23.2864 -2.63916 -37.3168 23.2255 -2.89039 -36.0823 23.0392 -3.76573 
-35.7408 23.0196 -4.02174 -35.0879 22.6421 -4.48778 -34.748 22.882 -4.77722 
-34.3991 22.8024 -5.03883 -33.1456 23.2392 -5.86653 -32.7549 23.2347 -6.06196 
-30.8545 23.1736 -6.56204 -30.6477 23.1142 -6.53764 -30.2207 22.6305 -6.34631 
-29.9316 22.6165 -6.26161 -29.8262 21.989 -6.02278 -29.6408 21.3909 -5.79632 
-29.5286 21.0194 -5.60961 -37.7907 21.2253 0.370851 -37.9486 21.8117 -0.0264215 
-38.052 22.1649 -0.236435 -38.0657 22.1719 -0.427846 -38.0517 22.2092 -0.929644 
-38.0483 22.3486 -1.24006 -38.0727 22.7193 -1.62971 -38.0616 22.9237 -1.82443 
-37.9029 23.1635 -2.25035 -37.8486 23.3092 -2.40429 -36.8442 23.3844 -3.34279 
-35.5452 23.0104 -4.17902 -35.1147 23.0224 -4.53047 -33.9202 23.0259 -5.36204 
-33.5938 23.0242 -5.56136 -33.5921 23.2251 -5.60945 -32.4009 23.272 -6.23972 
-31.7397 23.2248 -6.4511 -31.4954 23.5611 -6.63085 -31.1665 23.4816 -6.64615 
-30.4567 23.18 -6.53402 -30.2315 23.0003 -6.45156 -29.5357 22.8512 -6.21153 
-29.5038 22.4633 -6.02243 -29.5452 22.0063 -5.84929 -29.6311 21.8248 -5.85395 
-29.6417 21.633 -5.82867 -29.4095 21.5624 -5.60971 -37.738 21.2306 0.559899 
-37.9468 21.9572 0.169776 -38.034 22.243 0.0508309 -38.2307 22.6405 -0.735544 
-38.1322 22.4375 -0.963963 -38.2196 22.7702 -1.22769 -38.2173 22.9003 -1.4329 
-38.044 23.1487 -2.03872 -37.8321 23.6294 -2.54613 -37.6097 23.636 -2.76148 
-37.0724 23.4641 -3.1866 -36.4601 23.3763 -3.63022 -36.2342 23.2736 -3.74402 
-35.8438 23.4665 -4.09201 -34.6906 23.0107 -4.83372 -34.336 23.054 -5.09844 
-33.4115 23.495 -5.8117 -32.9639 23.4819 -6.05341 -32.6374 23.5221 -6.23884 
-32.0545 23.25 -6.36796 -31.7845 23.5937 -6.58379 -30.9874 23.8054 -6.74757 
-30.5965 23.9374 -6.75839 -30.0524 23.1219 -6.45406 -29.8497 22.9631 -6.36429 
-29.396 22.159 -5.81714 -29.2571 21.4967 -5.42668 -29.3851 21.0275 -5.45328 
-29.4773 20.8202 -5.59633 -37.9007 21.9939 0.412624 -38.1161 22.4045 -0.189355 
-38.2537 22.7221 -0.428292 -38.2329 23.1797 -1.67424 -38.1832 23.2253 -1.82915 
-38.0499 23.4596 -2.20739 -37.9248 23.6253 -2.42915 -36.6609 23.6307 -3.57494 
-36.0358 23.3303 -3.89921 -35.5666 23.535 -4.33581 -35.2977 23.2167 -4.42979 
-34.2865 23.3047 -5.18454 -34.0087 23.4981 -5.44834 -32.3359 23.6095 -6.4153 
-31.8647 23.946 -6.6693 -31.6035 23.9935 -6.73443 -31.2301 23.8834 -6.757 
-30.2388 23.817 -6.67844 -29.9365 23.6512 -6.58049 -29.6642 23.2636 -6.39087 
-29.2478 22.6477 -5.99766 -29.2314 22.3143 -5.82085 -29.2312 21.9818 -5.63805 
-29.4421 21.8253 -5.71599 -29.2231 21.6297 -5.45238 -37.7372 22.0248 0.93842 
-37.9479 22.2125 0.440023 -38.083 22.5114 0.214789 -38.2408 22.7551 -0.199151 
-38.3503 23.0248 -0.645186 -38.2233 22.6858 -1.02254 -38.3244 23.0321 -1.10574 
-38.3166 23.2253 -1.42915 -38.1417 23.4253 -2.02915 -37.9087 23.8253 -2.42915 
-37.8177 23.8233 -2.57754 -37.2603 23.8238 -3.11133 -37.0411 23.9186 -3.33045 
-36.3473 23.7024 -3.83298 -35.9972 23.8551 -4.13362 -34.9012 23.2262 -4.73371 
-34.6068 23.2197 -4.93547 -33.9837 23.2189 -5.36801 -33.7842 23.6578 -5.64988 
-33.3732 23.8274 -5.96387 -32.8369 23.6327 -6.19111 -32.5349 23.822 -6.40043 
-32.0421 23.6253 -6.52634 -31.0355 24.4133 -6.88815 -30.8526 24.3993 -6.8827 
-30.4387 24.025 -6.76572 -29.8252 23.3115 -6.45366 -29.2524 23.263 -6.22878 
-29.2421 23.0253 -6.14739 -29.288 21.7916 -5.58874 -29.0468 21.6026 -5.24483 
-29.1844 21.2313 -5.25778 -37.6474 21.4555 0.920981 -37.5975 21.224 0.939913 
-38.3028 23.0272 -0.163097 -38.3373 23.0253 -0.429152 -38.3468 23.0253 -0.82915 
-38.2898 23.4253 -1.62915 -38.2377 23.4276 -1.81273 -38.143 23.6253 -2.02915 
-38.0669 23.6701 -2.20021 -37.6295 23.8238 -2.78038 -37.4421 23.8253 -2.9545 
-36.5927 23.8155 -3.67553 -35.5582 23.8326 -4.47396 -35.1203 23.4161 -4.6272 
-34.6623 23.5701 -5.01753 -34.1809 23.8071 -5.4485 -33.6116 23.9008 -5.85049 
-32.929 23.7991 -6.20183 -32.1237 23.8385 -6.56539 -31.8441 24.2513 -6.7373 
-31.2978 24.312 -6.85252 -30.6414 24.2251 -6.82919 -30.4421 24.2253 -6.80405 
-30.2421 24.0253 -6.73763 -30.0411 23.8115 -6.63629 -29.6421 23.6253 -6.4904 
-29.4421 23.4253 -6.35919 -29.0192 22.9621 -6.02194 -29.0539 22.4389 -5.80764 
-29.0628 22.0694 -5.57958 -29.0303 21.8561 -5.41406 -29.0964 21.4224 -5.20526 
-29.2233 21.0226 -5.26274 -37.5764 21.0253 0.970849 -37.4191 21.2138 1.32419 
-37.5299 21.4239 1.18896 -37.6103 22.0002 1.2539 -37.8049 22.3657 0.983522 
-38.1394 22.8237 0.396869 -38.2205 22.8359 0.0657602 -38.3362 23.2269 -0.414586 
-38.3643 23.2253 -0.629149 -38.3504 23.2253 -1.22915 -38.3279 23.4253 -1.42915 
-38.2052 23.6253 -1.82915 -37.9915 23.8253 -2.22915 -37.8437 23.9673 -2.42834 
-37.6972 24.0231 -2.63391 -37.4197 24.0264 -2.98333 -37.2343 24.0225 -3.16989 
-36.6509 24.417 -3.76502 -36.4198 23.8561 -3.82635 -36.2252 24.1335 -4.05519 
-36.0043 24.0372 -4.19554 -35.152 23.7447 -4.73848 -34.8975 23.521 -4.83158 
[...]
CELL_DATA 7666
FIELD FieldData 1
Area 1 7666 double
0.035065178081 0.019963774522 0.05770043614 0.060800257885 0.054178468502 0.03661453548 0.037969634845 0.021125827222 0.038546555129 
0.063646881876 0.066443317191 0.033784086674 0.060260174991 0.096358322072 0.081277197894 0.052586079057 0.10301616371 0.077359858746 
0.063637542137 0.070251037899 0.042582177936 0.022685835358 0.037926034327 0.040115726609 0.042135891376 0.022217274571 0.047522115501 
0.040150289889 0.069938949433 0.082255882117 0.085636444706 0.060242668677 0.074777642735 0.072598950208 0.09381143355 0.091629257369 
0.060816739128 0.099122476239 0.084235858519 0.17382673063 0.095374136898 0.046830801474 0.056100941948 0.054386641582 0.056524235738 
0.022145277038 0.045624999016 0.079767908907 0.090993769907 0.052408161804 0.046726945333 0.068650209989 0.068403665344 0.099490112692 
0.078949677252 0.023515021142 0.077867578995 0.049840179903 0.055233811648 0.11750879613 0.11716497929 0.081146320159 0.10219399507 
0.087922792995 0.054757914463 0.071448333985 0.027511471866 0.065461723846 0.062741705112 0.061157600645 0.079934869077 0.06160537593 
0.06193139038 0.16238212136 0.093581839314 0.055675891484 0.059578988943 0.051483845139 0.04525871203 0.064624855879 0.037114952702 
0.10392169845 0.076682012961 0.030183925563 0.040784228648 0.05458938068 0.04242322438 0.035661789082 0.058886567929 0.062563107108 
0.10073816166 0.063312425041 0.06733227683 0.056019132861 0.063808350035 0.056870695405 0.042853146809 0.014425125088 0.11823742568 
0.033458615345 0.050056696263 0.064083575028 0.078805306025 0.073906010996 0.067374728534 0.11364677884 0.16469643598 0.092375842724 
0.049100715004 0.063271888691 0.073816458732 0.058611638191 0.069680062169 0.065575457672 0.028041487245 0.046302240192 0.055814594096 
0.14722366427 0.022234998095 0.030569871231 0.047278352396 0.058770033443 0.056467162177 0.090919825677 0.049617404813 0.071671667566 
0.06596122268 0.088635486813 0.050931589652 0.11350801435 0.11653115881 0.064623936451 0.077577618878 0.054779417776 0.046265849813 
0.067799215328 0.029099550545 0.06582743565 0.10380568791 0.088579036359 0.1046472365 0.12841786248 0.12503714161 0.054681986301 
0.10746277732 0.024665829372 0.03476456236 0.020852450126 0.040497261086 0.024000515524 0.065163065018 0.035023622453 0.03440708309 
0.035833435857 0.051241638032 0.048337176174 0.033046680515 0.041611125304 0.02931295434 0.027731413904 0.031286081792 0.064181256612 
0.059919993503 0.064064771416 0.10521103974 0.10579336711 0.052156803116 0.081656887612 0.092840773729 0.05161067712 0.07455648312 
0.043764303264 0.079838806244 0.076083028607 0.034963414208 0.031913386286 0.077238071273 0.11244126032 0.13095745938 0.071146005583 
0.10613904087 0.044190438371 0.028932270331 0.048053504961 0.029331018542 0.030851333271 0.038845294901 0.041999206404 0.01921795633 
0.078478987995 0.068791578438 0.049915191246 0.046160121929 0.035310233387 0.024193645395 0.068486571525 0.042549947857 0.022939085683 
0.036810572819 0.030586656308 0.049698464319 0.048264092707 0.048192253981 0.043631028559 0.04007958334 0.050220933052 0.059083125793 
0.062190936601 0.054611533003 0.05968879145 0.055043833013 0.074620768683 0.058031514295 0.062572810296 0.040900757407 0.088456240899 
0.032809941155 0.058274205484 0.070104069577 0.031830679652 0.049532695727 0.048939074963 0.0517111412 0.041985378484 0.0443376907 
0.024216993746 0.055115098189 0.034848566639 0.033652593886 0.044910443004 0.084105228056 0.10967013223 0.095543352972 0.037851507432 
0.065372218822 0.041764835084 0.033931043927 0.046635381712 0.039677324197 0.043045299925 0.038823592859 0.063563825547 0.081047693757 
0.04638000705 0.044917289341 0.037293135492 0.070826541538 0.10175872195 0.046413937998 0.079992827626 0.083742333013 0.070584440815 
0.058331213552 0.17159043299 0.073915129015 0.064654157699 0.045394262713 0.064084161841 0.039855997752 0.049764951936 0.052468351999 
0.044933199525 0.049678944077 0.037624620159 0.041750318431 0.033906380236 0.035357456194 0.043642192339 0.039965231791 0.05819056755 
0.027387502997 0.041357917221 0.036148047264 0.030382432126 0.049457381356 0.048652442382 0.028770018977 0.030257253471 0.053715185544 
0.034489114596 0.025425783053 0.042540849049 0.034043251958 0.029777340031 0.052054386017 0.044719584229 0.10878914821 0.044147345815 
0.034576369398 0.051040662615 0.047240554949 0.062477441052 0.065918376371 0.039023984702 0.032445982924 0.06927793409 0.085296740153 
0.08801778795 0.11043389954 0.081799962757 0.027741540055 0.040759661203 0.055239812717 0.037225237041 0.074282854581 0.032240424084 
0.037726034476 0.032271222384 0.061060429531 0.02682509742 0.022660344095 0.040126546506 0.052451423022 0.026236339206 0.037090322772 
0.038650881187 0.064392887104 0.084313088886 0.046822362621 0.060201236777 0.053187177229 0.035075405578 0.055273185562 0.039519417113 
0.039380389579 0.039577368076 0.03268154033 0.037002566672 0.022942613341 0.060775142942 0.057241105294 0.072410339155 0.078309875697 
0.1523182849 0.0685820253 0.045461857975 0.022887552755 0.033505481914 0.057143546346 0.053761927736 0.057058339924 0.06565042742 
0.056921119958 0.051047776787 0.048612042074 0.056016979385 0.044477909467 0.052144039614 0.051212671838 0.03178323579 0.059096349736 
0.049764970821 0.071536515296 0.049124318088 0.045041593742 0.057544963604 0.042280599304 0.031774144683 0.043131628874 0.056521556606 
0.037372328955 0.04375227056 0.034377197316 0.073860626767 0.030111071049 0.051174084375 0.044548671788 0.055679367804 0.039638297738 
0.058484624178 0.034756943431 0.046308604225 0.040149485995 0.066785665363 0.052437111765 0.047967284244 0.071193752915 0.051380533225 
0.047500223702 0.056157226364 0.07298483519 0.050090762752 0.10001995106 0.087554985833 0.09825272456 0.057894406866 0.087327227183 
0.084960998239 0.031327211802 0.063252419717 0.037134361377 0.051694403184 0.071180431595 0.056763790448 0.057442896075 0.045401244429 
0.039324481315 0.046418704157 0.05917348119 0.08049404893 0.081530142822 0.063896131419 0.08026618053 0.063056088067 0.035581315388 
0.055651535617 0.066410582431 0.098317299204 0.054635088764 0.033438660617 0.030099387697 0.02748297016 0.038018732664 0.068113583314 
0.021539751278 0.090280843002 0.05608221143 0.038219127634 0.034295456359 0.024028773053 0.08936325185 0.074368901291 0.035860143538 
0.062929034499 0.06425801189 0.056104064794 0.047238773969 0.038046372695 0.040520896559 0.033560548389 0.024301181169 0.055348975015 
0.11752243102 0.047044462985 0.062936105013 0.068026869322 0.034719303596 0.032291794839 0.097055708555 0.056198905908 0.034170321002 
0.053843085592 0.06398212754 0.039189400709 0.098678631921 0.066402074071 0.053311915932 0.056810665801 0.068902448551 0.064130093643 
0.052512470482 0.069561692051 0.048175293415 0.16354277072 0.1327449729 0.095651310985 0.042483780762 0.067166280528 0.064108926129 
0.061865308136 0.040563706018 0.03245584291 0.021915121841 0.022652994221 0.039575406435 0.016752925731 0.050019707444 0.21528206622 
0.027445671138 0.056162995494 0.047719574526 0.04588116565 0.066958391442 0.05800109461 0.036905733248 0.025231357962 0.037071604601 
0.043035975898 0.027146554726 0.033926121482 0.029842175444 0.043221027956 0.014934955605 0.029974064639 0.10847776422 0.12097152702 
0.06103548992 0.054097179263 0.057857914299 0.073698872688 0.078780987539 0.086345811156 0.050122863545 0.055860182056 0.044017742446 
0.04760172012 0.032703064767 0.045416794982 0.066845776443 0.059514866257 0.090175698661 0.02695568305 0.047637339517 0.062625350084 
0.054160944449 0.047474320691 0.062536706889 0.075405641954 0.073891850424 0.11035457758 0.026481403645 0.12920313147 0.052621503995 
0.039545353626 0.031000259655 0.094952409453 0.064360031704 0.053594439154 0.034063362089 0.033821690692 0.025470173782 0.025620197942 
0.019052129286 0.055834267131 0.047476512279 0.10836315352 0.061758899504 0.058201114695 0.076655434648 0.031566826541 0.034024872341 
0.03700008365 0.050181382522 0.034050719208 0.056350777161 0.030842554109 0.017639020218 0.024441377553 0.020060501278 0.028062392691 
0.027202325449 0.016915581597 0.026260127011 0.023325370815 0.065840627615 0.059258518771 0.034094823195 0.10163563796 0.088527977102 
0.070895836482 0.050076463468 0.038260258216 0.073727992596 0.052446512356 0.060134421897 0.073241413255 0.050348574935 0.08630613876 
0.021661884561 0.041367473103 0.050440204962 0.0354955253 0.034503261519 0.041079404495 0.079165102164 0.06126493178 0.056697700336 
0.027250888683 0.01627509813 0.021468669263 0.016218105816 0.05226350441 0.032178984806 0.03764055359 0.040401110432 0.049354791361 
0.036802272832 0.036548991208 0.020633548494 0.031814973446 0.036913607167 0.026130284708 0.030188017218 0.026365443451 0.041928390783 
0.033740891119 0.097789800446 0.096402714419 0.066333189547 0.052516653766 0.036019189399 0.042165144857 0.02181171801 0.018489882811 
0.055790389044 0.02014628214 0.020389951794 0.023845471228 0.023596392016 0.020945097436 0.020044302921 0.017953574298 0.013309382541 
0.028463657574 0.024276642452 0.024183536988 0.028209126513 0.17333160633 0.019473485765 0.084166215326 0.053054666166 0.080547733282 
0.094554311899 0.042447671368 0.065003238211 0.080356171502 0.075677511889 0.083033889591 0.083935580939 0.026456409623 0.053322531655 
0.039254508756 0.041526747758 0.028770834057 0.029514127688 0.030772634417 0.048185339536 0.038822365847 0.020755596706 0.021530574997 
0.029614898889 0.021123080403 0.019882517211 0.025422775586 0.021814308936 0.017877144892 0.028076876361 0.038236154965 0.025150929053 
0.025913987438 0.028902355227 0.032826108558 0.064734908862 0.036666573376 0.041573111903 0.016631313039 0.041597092819 0.038063675276 
0.031544962656 0.042735601124 0.030032823924 0.044601259497 0.086022358276 0.049020425055 0.082116421188 0.069568724863 0.063602021086 
0.056751103064 0.042536693409 0.02702823391 0.021747143489 0.020163652303 0.02750047737 0.019692471081 0.02034410859 0.020042712909 
0.021837194977 0.018954054343 0.020182510755 0.024504400883 0.019929448188 0.017513737658 0.026285966118 0.0081168914272 0.023551193258 
0.024585444475 0.025777802627 0.020559218191 0.026422198954 0.026960575785 0.061394104952 0.078612813528 0.058907902552 0.032058861898 
0.026331874786 0.06481596798 0.074119581981 0.049781838373 0.044124716756 0.061685846035 0.086254962918 0.055636846326 0.066077470345 
0.046736419742 0.058025180156 0.074193592359 0.023003027608 0.039340103959 0.024734462575 0.070681100858 0.082779404402 0.056508693248 
0.032058367932 0.021307445622 0.021374446699 0.023753887151 0.019477839481 0.020345860163 0.021017645181 0.023120577068 0.015563990437 
0.022760958657 0.032375823812 0.020658533145 0.024323899178 0.030686220034 0.022193652763 0.030019952182 0.061934873282 0.036321536056 
0.082270144489 0.030317188713 0.032295581016 0.039085660555 0.036708519578 0.030698918845 0.043818880319 0.030525101864 0.032231881396 
0.046724360813 0.11258965765 0.075893100411 0.089375388049 0.092103652517 0.09709136198 0.033787097535 0.045234387727 0.046258711375 
0.023639938361 0.02143844962 0.02016011067 0.020117771444 0.020084143142 0.02194658529 0.020006455945 0.034011795761 0.026627250682 
0.021538959229 0.028826706401 0.039962606989 0.015795734427 0.0158243786 0.01563901684 0.020522910924 0.02638498205 0.02143502726 
0.041565213023 0.037949282854 0.02783101405 0.027568193425 0.071521120386 0.037050877939 0.060909091654 0.094354310019 0.063362395746 
0.069986731189 0.053379429741 0.04941369549 0.043323807494 0.049506139574 0.047550128716 0.042251268472 0.046587989348 0.030944632801 
0.044720871305 0.054701896355 0.077109449137 0.11305607631 0.077660851578 0.060078664814 0.055904249157 0.020493333946 0.020164355962 
0.019451407501 0.025766483055 0.020961559106 0.031575143491 0.0070076292705 0.020306826573 0.031947440494 0.012646200435 0.012237783233 
0.024148111836 0.013565076363 0.014448589551 0.022826965976 0.020262676351 0.027998350934 0.050983836859 0.061561969939 0.032532629356 
0.035889632885 0.035339381676 0.019620142608 0.031412752268 0.030800294573 0.033346215297 0.091488576701 0.054075334929 0.068679340461 
0.079917824689 0.094087501217 0.12623358251 0.035933528324 0.025815229428 0.031511449914 0.035738691913 0.039840465312 0.019032922516 
0.040828799325 0.021565136536 0.02053893233 0.020589207152 0.019829201215 0.031293462071 0.03377847419 0.027068319475 0.02691351746 
0.03023391179 0.021928878407 0.031693983895 0.028783289901 0.017607087266 0.018296196949 0.027296997765 0.026680102339 0.026382027591 
0.029496067189 0.034763565985 0.049905537804 0.092159979941 0.11608617434 0.056602835849 0.063739971893 0.043239875504 0.036428644268 
0.055802008801 0.063120049197 0.054702901945 0.069704003908 0.10522506395 0.073227304014 0.053095083702 0.097105387952 0.080753654308 
0.046727496962 0.02138193947 0.020617951905 0.020475928038 0.022903058063 0.019994498158 0.022981727593 0.031010706841 0.03453876565 
0.024490624563 0.0074379988318 0.029344654832 0.02223162051 0.013858095726 0.0095105522812 0.023623504881 0.013802367357 0.013987110904 
0.023429835682 0.027960631207 0.027201699802 0.024861670914 0.058125635985 0.041829263182 0.032586521265 0.033425202797 0.036897458474 
0.049610047775 0.04372099643 0.021699076572 0.014290616144 0.045392534778 0.088398921282 0.041379470039 0.066453439704 0.056608885368 
0.073350911746 0.074601548721 0.01342738811 0.024651504214 0.031614737526 0.043631320398 0.039533635508 0.02376468223 0.010141960508 
0.0056049168043 0.015852634848 0.042184527137 0.031297673352 0.027497303787 0.039348243518 0.02472418489 0.01894000561 0.023044595674 
0.022698820511 0.045042328035 0.015363865275 0.017697817923 0.023742762056 0.026019537633 0.025439775001 0.029498928087 0.027493370745 
0.035626404619 0.062782249075 0.055613854106 0.079728716255 0.065019725139 0.052603667966 0.072344048401 0.083028243555 0.08799167445 
0.085896282757 0.051616310629 0.09411438269 0.075389311506 0.064412040012 0.10279105265 0.12279306358 0.12554339585 0.05073623539 
0.019130598614 0.022852289537 0.020242833589 0.011668057936 0.012343580587 0.018886451183 0.03230582721 0.02990638273 0.023815179294 
0.028889014029 0.016747551576 0.027227945787 0.023188803087 0.026885479453 0.0172579428 0.013071613228 0.012638089287 0.022986325929 
0.023141037395 0.023439478955 0.028775686064 0.024716635839 0.074580968949 0.039430005905 0.03165648368 0.041892983074 0.039557338607 
0.020993413334 0.024673494063 0.042683152857 0.021946205912 0.024918161844 0.040719718731 0.073834799174 0.040084045911 0.058124153122 
0.085158991547 0.13738909891 0.051414570568 0.052451354989 0.032533624179 0.032483842382 0.020198606918 0.021342178483 0.026004437243 
0.041324206794 0.032019188214 0.029892995802 0.027427337304 0.041610774619 0.030223810343 0.029835470232 0.025568452737 0.035357440184 
0.022037209752 0.022014212837 0.018580736131 0.024762834331 0.027092383286 0.033235817673 0.022516804886 0.031106935032 0.018474647617 
0.023603209907 0.023567600058 0.029624556582 0.025509583824 0.026360702785 0.023888780999 0.027595870569 0.037021520995 0.050319754593 
0.061180160181 0.064926418578 0.059638905564 0.036367838274 0.030498760799 0.063326465381 0.093991557249 0.048660173948 0.062448712073 
0.12403781375 0.023379440502 0.023450549481 0.019074687677 0.022480581426 0.020526322467 0.019764441466 0.028862424554 0.033396187501 
0.021838209539 0.02203180548 0.028536657664 0.010957832027 0.014547117874 0.015388047126 0.02511910221 0.031499802919 0.023747936216 
0.020798977137 0.019432293978 0.013756599657 0.013183865423 0.02506553464 0.028014626145 0.01450147736 0.02743150881 0.12131507137 
0.029620449005 0.041092143046 0.052482684877 0.019918088189 0.020661461563 0.032686726187 0.037108925543 0.032114831161 0.034968363647 
0.067749658069 0.086449856219 0.052234984118 0.13482389937 0.05631285278 0.062058933686 0.021881885188 0.040075991435 0.019085013888 
0.02247087237 0.022870020683 0.022912738364 0.049318942855 0.041964898579 0.032296468759 0.043290476021 0.039163963782 0.024192448745 
0.049335644547 0.036922889565 0.024625003258 0.024794239722 0.024217246334 0.022673717664 0.026021151802 0.026118695363 0.023554902161 
0.032029528201 0.029177233612 0.0311363439 0.021928264601 0.025824488683 0.032270096958 0.023691198153 0.029519602434 0.052803805391 
0.069576902959 0.066314525423 0.04524312099 0.039120851148 0.072728258898 0.09229064469 0.02432034457 0.042193438017 0.14691985922 
0.072783086162 0.026664781416 0.021986793701 0.011042352787 0.0096440628394 0.020742954149 0.0052487912645 0.01060596269 0.011814186767 
0.027005476209 0.021498482025 0.023713496499 0.031006215856 0.010662580535 0.012917732088 0.025563533805 0.027638445552 0.025933454723 
0.022255682286 0.023898020538 0.0056643010543 0.022751387994 0.014327533817 0.033424714971 0.016737110284 0.017573390897 0.050108688202 
0.045004021792 0.026110939686 0.03128193782 0.069975826054 0.025773802794 0.03248397884 0.031471414842 0.042359048926 0.044705779606 
0.0219077588 0.057524287386 0.03140717071 0.069464391867 0.078470892315 0.068873737106 0.026960617918 0.05413891971 0.021800401028 
0.016839132254 0.015353391091 0.028982475622 0.0081628538064 0.022094793348 0.019141377889 0.042994589626 0.053928543208 0.047116451605 
0.044504037508 0.033951884856 0.033368041188 0.042889807198 0.046941290282 0.048710839274 0.032525549451 0.022649864379 0.021560348128 
0.024682623191 0.022050799877 0.031464894442 0.020816541431 0.030153244717 0.015630922901 0.022143875272 0.034806284463 0.055587467761 
0.030416023745 0.057357797466 0.047578668245 0.044082562227 0.046274953373 0.10236062939 0.10157124333 0.09223043288 0.10089955929 
0.14947528308 0.055727452065 0.024070784117 0.017057309128 0.015036550917 0.01445126122 0.0071765902663 0.01198370834 0.01308612314 
0.041349638676 0.020146309089 0.026395928854 0.035673905739 0.02388741361 0.040691846996 0.050124894036 0.022109623113 0.022219027044 
0.023820089062 0.008521554817 0.019225077039 0.023903970358 0.020758146609 0.0089540310041 0.015265961158 0.026066286169 0.056670698147 
0.033783874835 0.034117856809 0.049913497169 0.052313012516 0.043734536215 0.044133318036 0.053703786032 0.053506331178 0.042856764675 
0.028285150427 0.048579538657 0.089302452877 0.063264629244 0.067344538973 0.073704979318 0.091442938104 0.032418606189 0.021168077297 
0.02903351772 0.011589495955 0.032526217647 0.027611453002 0.03076911599 0.022389001023 0.017731685609 0.014030702228 0.020546253587 
0.022702492926 0.021204914859 0.035889928981 0.037576991747 0.053753313893 0.043902201641 0.060538952615 0.033569897439 0.053140311683 
0.086176807828 0.026396746958 0.028864785225 0.027179897604 0.026310596386 0.019947822413 0.02488109519 0.022662284603 0.023772491908 
0.027701605019 0.037721237949 0.02748561608 0.031423440379 0.044378280969 0.027725111018 0.026755433674 0.045064334366 0.0378374301 
0.094530456852 0.064265054714 0.064434598924 0.060216259017 0.16952507223 0.15448995166 0.04722059003 0.017855327047 0.017647670092 
0.017474126638 0.027356972692 0.036542785657 0.025376852808 0.01897732841 0.04367643843 0.020972122123 0.018187494961 0.02435317495 
0.090804812632 0.017660689557 0.028441922544 0.022376914832 0.022454320459 0.025390482988 0.020387795386 0.024914545175 0.02295841601 
0.0096057280386 0.01663690431 0.014482178853 0.0073555738178 0.024299594137 0.038255391444 0.040768427056 0.048358335468 0.036121208099 
0.039903913919 0.035648852496 0.052963706934 0.050415264889 0.050462436736 0.042894188631 0.034795877186 0.033939063523 0.070341463277 
0.09488974691 0.041813898953 0.076277543653 0.048167833085 0.02403368069 0.030791145617 0.015322665643 0.023833372453 0.023445190028 
0.026221033283 0.015570641875 0.02026433248 0.0183283407 0.036028900305 0.068356492662 0.023382453538 0.046944942324 0.039465104163 
0.01698381862 0.03984257936 0.025312867226 0.033893885088 0.027843502167 0.052902349376 0.036034968726 0.092707539367 0.066147137295 