# vtk DataFile Version 4.2
vtk output
ASCII
DATASET POLYDATA
POINTS 3864 float
-29.9612 21.2729 -5.46472 -29.8657 20.9418 -5.30146 -30.2242 20.9441 -5.65155 
-29.5276 21.1308 -4.95305 -29.3558 20.9374 -4.66175 -29.5614 20.9363 -4.95004 
-29.2988 21.211 -4.62292 -29.2061 20.9289 -4.39224 -29.0307 20.9376 -4.06614 
-29.1245 20.7865 -4.26614 -30.14 21.2474 -5.62303 -30.3225 20.9413 -5.7221 
-29.7146 21.4821 -5.26146 -29.1055 21.1409 -4.29054 -28.9233 21.2073 -4.05106 
-28.9415 20.95 -3.85998 -28.8758 20.9376 -3.66614 -28.9245 20.7932 -3.86614 
-28.7466 21.1181 -3.51893 -28.8098 20.9376 -3.46614 -28.726 20.9376 -3.30684 
-28.5383 21.1197 -3.16814 -28.5472 20.9392 -3.01699 -28.0891 20.9397 -2.12764 
-28.2176 20.7376 -2.26614 -28.3232 20.9398 -2.5294 -28.1243 20.7377 -2.09487 
-28.0177 20.7376 -1.86614 -30.3301 21.4519 -5.78692 -30.1049 21.6239 -5.63644 
-29.9239 21.5357 -5.46585 -29.5402 21.3989 -5.05468 -29.4173 21.3376 -4.86614 
-29.135 21.3704 -4.43265 -28.8702 21.1376 -3.86614 -28.5463 21.1882 -3.25709 
-28.3176 21.1296 -2.73625 -28.1338 21.1402 -2.46077 -27.9233 20.9509 -1.79432 
-37.6944 21.5332 -2.05365 -37.5336 21.3378 -2.30644 -37.6872 21.3373 -2.04933 
-37.3726 21.54 -2.46725 -37.3676 21.3463 -2.50406 -30.5131 21.2528 -5.86949 
-30.5372 20.937 -5.85157 -29.8882 21.7389 -5.48948 -29.5007 21.542 -5.08013 
-29.313 21.338 -4.69459 -29.0151 21.3376 -4.26614 -28.9013 21.3457 -4.13429 
-28.5078 21.3451 -3.47373 -28.3988 21.3527 -3.25283 -28.2941 21.3297 -2.99786 
-27.9246 21.1364 -2.1121 -27.8497 20.9337 -1.47471 -27.9278 20.7352 -1.58714 
-37.7859 21.6851 -1.91198 -37.5327 21.537 -2.28191 -37.1923 21.3436 -2.67796 
-30.7383 21.2086 -5.9543 -30.7245 20.9376 -5.92852 -30.9311 20.9462 -5.99652 
-30.4744 21.5378 -5.87714 -30.3245 21.7376 -5.80348 -29.7245 21.7376 -5.3738 
-29.548 21.7803 -5.26091 -29.3259 21.5418 -4.86409 -29.1453 21.5378 -4.62149 
-28.9516 21.5423 -4.39567 -28.7203 21.3287 -3.82625 -28.0816 21.326 -2.68093 
-27.9395 21.3245 -2.42802 -27.7882 21.1874 -1.86794 -27.7604 21.1627 -1.66401 
-27.9025 20.7376 -1.46614 -37.8442 21.3376 -1.66614 -37.7298 22.0768 -2.06366 
-37.5355 21.765 -2.27457 -37.1215 21.5367 -2.71752 -33.451 21.3422 -5.44821 
-33.3877 21.1382 -5.47427 -33.5352 21.1409 -5.38688 -33.1018 21.143 -5.60457 
-32.596 21.3316 -5.81802 -32.5473 21.136 -5.83309 -31.2233 21.1921 -6.0404 
-31.1257 20.9363 -6.03072 -30.7337 21.5928 -5.97189 -30.4397 21.9289 -5.87091 
-30.0388 21.9312 -5.6495 -29.7305 21.9593 -5.46894 -29.327 21.749 -5.05198 
-28.9079 21.5041 -4.28741 -28.7229 21.5229 -4.10322 -28.212 21.7097 -3.64641 
-28.1368 21.5672 -3.16868 -27.9307 21.5422 -2.81724 -27.8295 21.3733 -2.29275 
-27.7396 21.3459 -2.04473 -27.7204 21.1449 -1.35384 -27.8797 20.7376 -1.26614 
-37.8685 21.5376 -1.66614 -37.8483 21.9614 -1.86576 -37.2247 21.731 -2.60683 
-34.1017 21.3462 -5.04391 -33.9395 21.1344 -5.14014 -34.371 21.1454 -4.88717 
-33.7238 21.2746 -5.26657 -33.4657 21.5331 -5.45306 -33.1057 21.5979 -5.63067 
-32.207 21.1411 -5.93935 -31.9315 21.3997 -6.01871 -31.9245 21.1376 -6.01183 
-31.5106 21.4761 -6.05847 -31.509 20.9401 -6.06638 -31.716 21.1549 -6.05516 
-30.9216 21.6289 -6.01618 -30.3245 21.9376 -5.82007 -29.5433 21.9836 -5.37236 
-29.238 22.0214 -5.21007 -29.1574 21.7387 -4.86625 -28.8125 21.8798 -4.67649 
-28.7163 21.7514 -4.38754 -28.345 21.7171 -3.86895 -27.8886 21.5072 -2.67159 
-27.7488 21.5856 -2.48103 -27.554 21.5662 -1.8699 -27.5926 21.437 -1.63659 
-27.8124 20.9376 -1.26614 -37.9188 21.7622 -1.66058 -37.7729 22.3687 -2.08457 
-37.5638 22.1443 -2.2831 -37.2815 21.9259 -2.55128 -36.939 21.5382 -2.91275 
-36.9359 21.7513 -2.90204 -36.8154 21.5376 -3.06615 -36.0749 21.7563 -3.63009 
-36.1073 21.5418 -3.64222 -36.3954 21.5439 -3.4674 -34.662 21.3375 -4.66085 
-34.5254 21.1417 -4.76735 -34.3659 21.3392 -4.87442 -33.7368 21.5851 -5.29348 
-32.777 21.7475 -5.7691 -32.3244 21.9782 -5.92779 -32.1025 21.633 -5.97886 
-31.7302 21.6222 -6.04479 -31.1884 21.4782 -6.04062 -30.8354 21.93 -5.99754 
-30.3077 22.1611 -5.85949 -30.1125 22.1455 -5.76215 -29.7761 22.1414 -5.57886 
-29.0082 22.0576 -5.05517 -28.5199 21.7332 -4.13502 -28.1336 21.952 -3.88567 
-27.92 21.7514 -3.13525 -27.7541 21.7478 -2.8261 -27.4654 21.8607 -2.23774 
-27.5659 21.6263 -2.0737 -27.5718 21.3971 -1.27899 -27.7006 21.1246 -0.917382 
-27.8674 20.7376 -1.06615 -27.7705 20.9603 -0.945739 -27.8278 20.7366 -0.699017 
-27.7007 21.1264 -0.651595 -27.8342 20.7373 -0.461011 -37.997 21.8193 -1.49616 
-37.9246 21.5378 -1.51446 -38.0343 21.5376 -1.26614 -38.0005 22.2824 -1.69209 
-37.9327 22.4783 -1.88568 -36.7313 21.7286 -3.11138 -36.3233 21.7257 -3.46484 
-36.5418 21.7391 -3.29357 -35.9056 21.5667 -3.76029 -33.9791 21.7026 -5.1609 
-33.8732 21.9304 -5.24021 -33.3117 22.0413 -5.5409 -33.0841 22.3225 -5.65942 
-31.9284 21.7637 -6.0122 -31.5236 21.8408 -6.05699 -31.1229 22.0942 -6.04394 
-30.4811 22.1793 -5.92953 -29.5159 22.5165 -5.65439 -29.1674 22.3113 -5.36541 
-28.9493 22.3526 -5.23848 -28.7963 22.0648 -4.86467 -28.4242 22.079 -4.43999 
-27.939 21.9595 -3.56831 -27.5534 21.9592 -2.64726 -27.3673 21.9645 -2.0549 
-27.3081 21.9739 -1.62264 -27.6776 21.2251 -0.466326 -27.8587 20.7388 -0.249387 
-38.0704 21.3376 -1.26614 -38.092 21.5376 -1.06615 -38.0591 21.7376 -1.26614 
-37.9331 22.8752 -2.10403 -37.543 22.3272 -2.33477 -36.8547 21.9404 -2.97429 
-36.3331 21.9366 -3.43207 -36.0154 21.9117 -3.65547 -35.9245 21.3376 -3.74512 
-34.4986 21.7436 -4.83499 -33.5297 22.0326 -5.44121 -32.6191 22.197 -5.83149 
-32.1184 22.4869 -5.98527 -31.7472 22.0779 -6.03611 -31.3364 21.8371 -6.05383 
-30.9245 22.1376 -6.02612 -30.6678 22.1653 -5.98262 -29.9025 22.5938 -5.88465 
-29.2011 22.4293 -5.45699 -28.7358 22.3553 -5.05447 -28.4096 22.2833 -4.65848 
-27.9415 22.1528 -3.86044 -27.7486 21.9259 -3.07339 -27.3673 22.16 -2.47356 
-27.298 21.9319 -1.11301 -27.5928 21.3363 -1.02123 -27.524 21.5554 -0.556211 
-27.6814 21.2869 -0.302209 -27.7997 21.0826 -0.0825662 -27.9127 20.7367 -0.0148782 
-27.9629 20.7338 0.117183 -38.2131 21.653 -0.663162 -38.1794 21.3376 -0.666144 
-38.1942 21.3376 -0.466147 -38.144 21.5193 -0.869231 -38.1254 21.3384 -0.957952 
-38.1182 21.9548 -1.23335 -38.1242 22.3114 -1.47061 -38.1686 22.5761 -1.5522 
-38.0797 22.7376 -1.80114 -37.7199 22.6465 -2.25358 -37.116 22.4833 -2.76517 
-37.0654 22.1198 -2.77084 -36.5332 21.9376 -3.27436 -35.7572 22.0953 -3.88292 
-35.7786 21.6438 -3.85783 -35.7264 21.3376 -3.86663 -34.7386 21.7387 -4.65819 
-35.134 21.3506 -4.31744 -34.4988 21.9756 -4.8453 -34.1492 21.9891 -5.06137 
-33.5119 22.3465 -5.44151 -32.7556 22.5269 -5.78107 -32.3972 22.5152 -5.90812 
-31.9339 22.4815 -6.02151 -31.3898 22.15 -6.05347 -31.1836 22.317 -6.06769 
-30.1952 22.6662 -6.00606 -29.7245 22.5376 -5.77866 -29.1413 22.7347 -5.57048 
-28.8787 22.523 -5.2938 -28.5514 22.3386 -4.86183 -28.1294 22.3425 -4.37628 
-28.1417 22.1806 -4.20191 -27.7928 22.1257 -3.52974 -27.7167 22.11 -3.3017 
-27.4575 22.1376 -2.66614 -27.3234 22.1318 -2.27906 -27.1835 22.3376 -2.06615 
-27.1154 22.2879 -1.29407 -27.5062 21.5201 -1.02015 -27.5011 21.7029 -0.263102 
-27.8708 21.1376 0.133859 -38.2439 21.6315 -0.44939 -38.1321 21.7579 -1.00925 
-38.1263 22.1298 -1.35615 -38.125 23.1827 -2.05061 -37.8985 23.0725 -2.26495 
-37.529 22.5347 -2.39501 -37.2723 22.5403 -2.62789 -36.7499 22.1389 -3.07463 
-36.3228 22.2483 -3.43565 -36.0099 22.1222 -3.66171 -35.3979 21.3254 -4.10457 
-35.1344 21.7307 -4.36181 -34.125 22.3456 -5.08462 -33.8748 22.2917 -5.23363 
-33.4477 22.7175 -5.48394 -33.1003 22.7727 -5.65311 -32.1836 22.728 -5.9976 
-31.6955 22.3448 -6.04457 -30.9216 22.5058 -6.08273 -30.6816 22.4567 -6.04911 
-30.455 22.7041 -6.07402 -29.9032 23.0563 -6.04655 -29.6305 22.778 -5.83474 
-28.9249 22.766 -5.45429 -28.6686 22.7342 -5.232 -28.4029 22.5523 -4.8805 
-28.0975 22.534 -4.51675 -27.9245 22.3373 -4.06799 -27.7492 22.3397 -3.75263 
-27.5371 22.2042 -3.03141 -27.3559 22.3391 -2.63637 -27.2286 22.3376 -2.26614 
-27.1265 22.3437 -1.67898 -27.1387 22.2228 -0.973961 -27.3214 21.8931 -0.726787 
-27.4179 21.779 -0.478787 -27.7071 21.3767 -0.0659513 -27.7773 21.4049 0.130204 
-27.9705 21.073 0.290162 -28.1777 20.7429 0.516198 -38.0692 21.5299 1.0123 
-38.1106 21.3342 0.729598 -38.0571 21.3376 0.933854 -38.2213 21.5721 0.522004 
-38.1954 21.3382 0.3746 -38.202 21.3368 -0.105395 -38.2691 21.9376 -0.666144 
-38.1766 21.9371 -0.992536 -38.2252 22.1376 -1.06615 -38.2296 22.3376 -1.26614 
-38.3716 22.8589 -1.44894 -38.3348 23.0388 -1.67231 -37.7778 23.3125 -2.49691 
-37.5269 22.7574 -2.47652 -37.1061 22.7329 -2.82528 -36.7848 22.3916 -3.05906 
-36.551 22.2833 -3.25649 -35.8833 22.3965 -3.78527 -35.5496 21.794 -4.05054 
-35.4018 21.5669 -4.13997 -34.4834 22.1286 -4.85657 -33.7116 22.7086 -5.33898 
-32.6777 22.7424 -5.83432 -31.8192 22.7277 -6.08066 -31.1886 22.5323 -6.10162 
-30.1033 23.2228 -6.15621 -29.5283 22.9748 -5.8608 -29.3319 23.0656 -5.80809 
-29.1358 22.9382 -5.65331 -27.9241 22.5361 -4.27513 -27.6276 22.3358 -3.47791 
-27.5316 22.3497 -3.26982 -27.4277 22.342 -2.89399 -27.2023 22.5369 -2.25363 
-27.0679 22.5376 -1.46614 -27.0974 22.3157 -1.07174 -27.338 21.9972 -0.275372 
-27.4509 21.9059 -0.0672254 -28.1864 20.9446 0.577697 -37.9375 21.3352 1.28253 
-38.2486 21.5491 0.343339 -38.2058 21.3376 0.133859 -38.2677 21.623 -0.108632 
-38.3331 22.1138 -0.431526 -38.3817 22.6801 -1.26562 -38.4254 23.2969 -1.68237 
-37.9701 23.3213 -2.31922 -37.3018 22.7823 -2.68038 -36.8543 22.7546 -3.05204 
-36.592 22.6536 -3.24772 -36.2673 22.5071 -3.4996 -35.5576 22.4562 -4.05825 
-35.1987 21.9544 -4.32314 -34.7299 22.1376 -4.66993 -34.2627 22.5511 -5.01705 
-33.8748 22.9198 -5.26355 -33.3413 22.9438 -5.55653 -33.0206 22.9397 -5.71064 
-32.7173 23.0313 -5.86536 -32.1918 22.9347 -6.0388 -31.6923 22.5459 -6.06432 
-31.0602 22.7319 -6.14692 -30.7203 22.7658 -6.13405 -30.4426 23.174 -6.22074 
-29.9295 23.511 -6.18816 -29.7392 23.2602 -6.05027 -28.9245 23.1376 -5.58514 
-28.7245 22.9376 -5.375 -28.3044 22.7279 -4.89563 -27.9434 22.7396 -4.42155 
[...]
CELL_DATA 7604
FIELD FieldData 1
Area 1 7604 double
0.083682571699 0.034809522343 0.042711604125 0.027112493347 0.018301103554 0.035419051117 0.072559684822 0.045710117565 0.052610920931 
0.046148090509 0.039365421064 0.031687483478 0.016159689725 0.020648375691 0.017784341841 0.034210077327 0.047952685823 0.020211736879 
0.026124382916 0.059578701613 0.044909550324 0.03934379941 0.079421074632 0.074555958498 0.037127378822 0.040300938014 0.039782261455 
0.019877166357 0.02105220975 0.040778580701 0.016648362461 0.048168105939 0.056576099616 0.055433476792 0.040309051411 0.029364889467 
0.025260520746 0.039719571961 0.055179627767 0.049361568767 0.034029376754 0.030600058908 0.020691624584 0.027849298661 0.013010027779 
0.021681412154 0.022235242557 0.028530600452 0.011660370433 0.037028202602 0.041381943966 0.011447862475 0.060120583602 0.037901667754 
0.048445927676 0.04460018616 0.037867087065 0.029822004818 0.016527494866 0.027983006237 0.02450576662 0.024043811599 0.029452823398 
0.027496986238 0.037749367676 0.025624209914 0.039189877664 0.026279219703 0.026969901341 0.040992063935 0.020923326368 0.026086561293 
0.021897321159 0.033020339496 0.023882217696 0.013735110991 0.040115631396 0.043081664654 0.058750044886 0.025651758182 0.038851813654 
0.049222850503 0.04183793373 0.048474579289 0.039619897392 0.041933244273 0.012554383986 0.072435201469 0.045203776801 0.03190115026 
0.027923170148 0.034578360105 0.017415165824 0.032199191053 0.058494828566 0.025780442721 0.037936772461 0.033643678421 0.034703467776 
0.018834295769 0.045563409967 0.038126626368 0.023390543073 0.029810051938 0.036985662448 0.033064757496 0.033482336047 0.030514296769 
0.01206516816 0.016511995407 0.040931160756 0.10295593834 0.035398996915 0.04294677985 0.056314060692 0.034846401628 0.028274881066 
0.03137067335 0.027966397218 0.038538485965 0.020446497168 0.026729354655 0.036215461911 0.075670174737 0.046993514999 0.034207870889 
0.051923584809 0.032392193567 0.029472143333 0.035461645706 0.12446196457 0.035001708698 0.038221794424 0.055343436768 0.049052868361 
0.10176679701 0.065999961129 0.053051792236 0.054951111317 0.012657754213 0.033332270485 0.038943252776 0.025465186076 0.024740717012 
0.04883000788 0.029871377333 0.03638167363 0.066245006604 0.019269727075 0.025633532561 0.080851824278 0.067709400149 0.11293548557 
0.065684638036 0.020544552765 0.035472559406 0.026522888028 0.03553586977 0.040309330681 0.033407718104 0.05028468912 0.024793174325 
0.022298397229 0.03144319106 0.036917353482 0.034456868167 0.05267527213 0.04299515576 0.026086855528 0.021003213827 0.036447208274 
0.019454492363 0.0305031245 0.039685501873 0.050989153293 0.029832790812 0.091172344827 0.088206812491 0.15965093233 0.056133365207 
0.027973440101 0.050341879706 0.076999280909 0.035725281071 0.030645289871 0.070001487504 0.014332052753 0.036602104208 0.036223205887 
0.021850561127 0.04006721864 0.045646696228 0.049858018898 0.065313312691 0.052014596753 0.052490770489 0.034105573495 0.045350707394 
0.039445502106 0.072168418251 0.05242225965 0.02108856435 0.036345139032 0.066098160222 0.043919900707 0.033685648856 0.05241052271 
0.053525924373 0.04913749922 0.02113811828 0.043967706707 0.048847870544 0.039040819435 0.01852205669 0.057556704064 0.064804598858 
0.04100368458 0.072486659183 0.041043499299 0.04409098195 0.029288036559 0.026414623402 0.026972871672 0.024988506525 0.035481499795 
0.055577180291 0.068501719113 0.050701008613 0.096289588615 0.12693086289 0.12137448499 0.07516265801 0.032153743276 0.049158822047 
0.039163315632 0.046120204442 0.077642430331 0.051061229151 0.052759647788 0.023161056117 0.02480469441 0.042588429222 0.080402231897 
0.058382053139 0.049182234886 0.056943122935 0.055249272228 0.071579038899 0.068214181368 0.048355769356 0.058019119338 0.09069752833 
0.045790340569 0.039123695815 0.087087884008 0.059590259831 0.041172408475 0.039263104412 0.10940164868 0.064271542643 0.028197327381 
0.036862539677 0.056134026002 0.047778037533 0.054541527091 0.021124952468 0.024272702356 0.024883149186 0.04789955982 0.05526293192 
0.062898277885 0.032331165059 0.041469146739 0.0560644789 0.028927675337 0.028838189449 0.029211109506 0.032016925957 0.022646956983 
0.026474976559 0.07441812454 0.12180386904 0.059196750991 0.039247675581 0.10263143996 0.060167644301 0.088444257833 0.12208522443 
0.088217154003 0.09480128394 0.076630794176 0.036711751946 0.049064762071 0.058840834019 0.057426885695 0.022751230659 0.021886354771 
0.046773081738 0.054667137516 0.080965979689 0.10526301837 0.036036148712 0.042826951368 0.048596934811 0.049071627622 0.06461251946 
0.074279986689 0.11849265642 0.046354941081 0.060570246482 0.037525356293 0.063627878427 0.060988298361 0.035111311532 0.13187938449 
0.15607853926 0.027341653549 0.023698469015 0.038395344604 0.049231581667 0.043069496969 0.024963807678 0.031796221605 0.02687651451 
0.01925578443 0.020960183932 0.02845962823 0.062480525497 0.051046302074 0.056031411484 0.055486075802 0.052156821907 0.14838000171 
0.056051001786 0.043859598333 0.02541273105 0.031074968019 0.07328627388 0.017397409768 0.035662672716 0.11735739509 0.060306244962 
0.071286644394 0.041355028552 0.061697000791 0.037555775345 0.070567058134 0.072673381495 0.074999292158 0.076584717859 0.067504183018 
0.04448623098 0.050535221531 0.03335194982 0.040290851179 0.023623301161 0.028368417834 0.047794162278 0.090517368787 0.054710514827 
0.057251254045 0.061372684143 0.027621297137 0.023375449509 0.027007734975 0.044570995265 0.04555286428 0.055743361638 0.069637656979 
0.051329506994 0.037995361767 0.054261959166 0.052046714689 0.021284350773 0.030727618286 0.031390894454 0.090671977453 0.099171244033 
0.066198014438 0.026223640347 0.03166142657 0.10660957123 0.060327436756 0.036678836055 0.058950359647 0.047610895729 0.032387460235 
0.033596165425 0.02316219731 0.028913489114 0.029234833793 0.033969395742 0.033575695811 0.03573574525 0.047837828981 0.066601621405 
0.043989997571 0.027780471475 0.033789086982 0.060093816731 0.042091974774 0.043859211566 0.039709755119 0.060670553913 0.035459463187 
0.034895404226 0.061987031942 0.094277453773 0.034579895434 0.060217022708 0.059598202134 0.075698254865 0.090010380844 0.08064584782 
0.061883563236 0.034294398234 0.022635512866 0.066294241246 0.045892232597 0.029198430697 0.02819872238 0.048589190859 0.039173154212 
0.078217942697 0.075059514354 0.028305128285 0.031964632439 0.074553444736 0.040743962194 0.05426945085 0.049260163549 0.033364116211 
0.033020231683 0.047198595587 0.044346980798 0.041592742735 0.043419194305 0.025645038427 0.045949186425 0.075309779364 0.038222590425 
0.022316481502 0.022845971879 0.026715737004 0.042550852369 0.081236939591 0.078338579973 0.057867275422 0.087023642702 0.037677766138 
0.093438238105 0.031231644862 0.053859351442 0.036642522006 0.032982087202 0.037270677288 0.078047815674 0.020448462975 0.044314211251 
0.053765558791 0.031385430053 0.035310450677 0.022958401796 0.028197780205 0.022993186416 0.03238060213 0.056236109337 0.08993961603 
0.041231124642 0.070617527684 0.030444179531 0.036344683182 0.027622371333 0.078838439596 0.055744695475 0.048414969027 0.049715892896 
0.041151299451 0.048466053921 0.065126544037 0.057994887726 0.041008644282 0.064072225353 0.057363316795 0.031312297308 0.07217818754 
0.052496388838 0.081879056558 0.055525810091 0.087471326331 0.051124150652 0.041759312606 0.057209487267 0.046424638065 0.035540374687 
0.045685333124 0.029056779844 0.045040889335 0.035862918915 0.079085076669 0.068836275239 0.098773450379 0.019792074452 0.09203388086 
0.027192420052 0.041958634308 0.083577856087 0.071594347323 0.03277201475 0.035604781147 0.039459086501 0.037317702445 0.031057623965 
0.040121442622 0.034330041371 0.029571221211 0.037100243889 0.020563797682 0.039600478732 0.044508027599 0.012903814912 0.067203404915 
0.036623795468 0.036146367961 0.059099557936 0.032352438113 0.024253325318 0.040168454562 0.036170404736 0.057336890339 0.019988007824 
0.026171774412 0.035136661819 0.050165561411 0.056391905411 0.049167801167 0.034022402545 0.025605642462 0.033099105575 0.06078724769 
0.044121241528 0.0594931184 0.061416577132 0.040719672631 0.034512028354 0.09559228055 0.03430988675 0.04312242843 0.030559063809 
0.042271728018 0.078316533857 0.036716110775 0.053121892371 0.055288356788 0.075559930171 0.068778258106 0.088167534299 0.047021100546 
0.053676737774 0.098499617085 0.023739369031 0.060331673417 0.091944605792 0.05791304835 0.032662673286 0.040358412294 0.040153603231 
0.075742555174 0.03942434901 0.026675947685 0.024574893939 0.051821036585 0.055021394339 0.029285061441 0.037513465073 0.041596838802 
0.085443223621 0.047000306644 0.05122965689 0.016847350871 0.024385691044 0.048906211665 0.034552105465 0.047801097367 0.046772045247 
0.032110392563 0.042123738403 0.04060024641 0.031858319629 0.03209163747 0.030594773108 0.026457560278 0.037439383789 0.039811720212 
0.046261967018 0.03123361173 0.026430695216 0.028750095921 0.013335271887 0.052722924391 0.067596386075 0.053884867612 0.035407076428 
0.067396639684 0.048191591645 0.033677813091 0.047050341235 0.061684546131 0.050488066255 0.11994207594 0.039185211634 0.022570399872 
0.02977089587 0.083819767547 0.023567903575 0.039887289754 0.025900241129 0.043383307198 0.040620166268 0.029928048738 0.04404081608 
0.029664123056 0.043919924084 0.020548329073 0.03126922283 0.08736726772 0.076053365826 0.020857249379 0.028502093969 0.056706538609 
0.054744348484 0.059376043307 0.1006020659 0.092599788503 0.11073979463 0.055707451476 0.073837187732 0.084396069059 0.078600826992 
0.042473448583 0.08826074761 0.067424792133 0.030061104256 0.050796339604 0.05862507592 0.042398206603 0.039679811112 0.050304804965 
0.034055310566 0.042065792674 0.066462773769 0.063275046451 0.037143405608 0.043802897359 0.044600073066 0.039966985138 0.027616181985 
0.020076644977 0.046916859014 0.02572329417 0.027209415133 0.054717563232 0.033503376444 0.03359904559 0.017077903753 0.027026596004 
0.02142939843 0.023589994059 0.039113030702 0.02256810484 0.038713708226 0.020062169379 0.023440857939 0.031913656988 0.056377884596 
0.015231865971 0.021257861093 0.027048385237 0.063940841964 0.053425273424 0.037051802202 0.061181641969 0.036532683026 0.053438128041 
0.026990607983 0.034509903782 0.05494439347 0.062139114884 0.058855744508 0.068547477689 0.027107762787 0.045146526761 0.024705473113 
0.084222511 0.082559674913 0.049047491707 0.040520957544 0.044841555436 0.072490973228 0.093205424964 0.025375983922 0.024682428736 
0.047093263955 0.025534640766 0.037761949112 0.031772687888 0.028675450779 0.070626442617 0.031577157807 0.033877141299 0.047610941887 
0.055959208762 0.061278749437 0.042736839168 0.036173965071 0.034121296727 0.077354504165 0.10530569635 0.11180835216 0.11856764253 
0.076862262899 0.082870360574 0.036129209152 0.10275128372 0.082671320869 0.059697347201 0.032984149498 0.068578754666 0.036528342747 
0.02515995027 0.054969539406 0.036395683991 0.024983787275 0.05139726327 0.036634842893 0.064604571603 0.08104423687 0.051356099482 
0.020934957695 0.031262805014 0.024216803194 0.034292852025 0.030862401592 0.019453987714 0.023865282653 0.028312748557 0.024951869706 
0.031585620254 0.021634572633 0.031079042141 0.030850997983 0.016844725302 0.024497339713 0.020463354251 0.021965559593 0.038992497383 
0.025808988755 0.022055383426 0.027687436402 0.022134605826 0.025900166967 0.042914028914 0.020249519262 0.02502464918 0.034054870805 
0.022683280527 0.037249240975 0.036339960386 0.034085119387 0.035146518377 0.059904893112 0.040430439726 0.051793559296 0.043374582565 
0.054010721698 0.055343913317 0.05408069868 0.061664829079 0.031351419373 0.033609501927 0.050893386583 0.048383013053 0.033587250895 
0.1061520269 0.068709981023 0.063795971724 0.041693749156 0.058869862282 0.05140171547 0.041963011063 0.034467295562 0.024389871581 
0.039998555163 0.024170319952 0.032525857053 0.051189176121 0.04401799438 0.055222763901 0.037026657734 0.04744625354 0.061888966512 
0.07372503745 0.022860298899 0.059884538914 0.038690953905 0.067284277209 0.072072280955 0.10155229242 0.13748784642 0.052227883126 
0.032509787271 0.054801095467 0.063831454155 0.03686311006 0.032484856301 0.020100838713 0.054295311951 0.042024316229 0.046862177995 
0.024541148886 0.036677466506 0.060484931362 0.055151452721 0.027740313168 0.08810987268 0.063266933471 0.052724505263 0.049597161867 
0.02401003224 0.015771854179 0.02111976135 0.030992497052 0.027011695668 0.025024205007 0.028301905601 0.024321604273 0.025955748072 
0.026868867412 0.023786333985 0.028133906138 0.021120074352 0.024289295583 0.027489311951 0.021914313141 0.021382389707 0.022576226248 
0.039122292268 0.021743586662 0.028628784304 0.050518386436 0.022392172028 0.032697376674 0.056070344392 0.035280285065 0.020082716811 
0.020208981579 0.020133940376 0.020282702961 0.02467645472 0.046324499964 0.045752762004 0.059144525435 0.16168068164 0.042936783147 
0.041832509171 0.05420039063 0.083502640275 0.056655203367 0.027421068092 0.11630746221 0.087140767433 0.083518386969 0.076781574664 
0.046689681396 0.030469436188 0.077067236915 0.064915675128 0.048632264368 0.024741697232 0.03265687116 0.053048048069 0.04287191861 
0.044904087536 0.036183040336 0.052045979861 0.062235981969 0.051267813568 0.02870036173 0.048398996678 0.032472540713 0.057390097548 
0.064666167764 0.046610006567 0.058540310572 0.03528925099 0.048081809708 0.040197938457 0.036294447355 0.079512190685 0.079685897779 
0.04496086459 0.069080741963 0.061629086762 0.037998553577 0.030995234655 0.062489357266 0.048410554672 0.065026607186 0.049960124982 
0.052666393987 0.049530461655 0.04542365289 0.074631671904 0.06457340852 0.066876113961 0.078564713326 0.070786503037 0.045621017024 
0.052132321389 0.035518620512 0.031275564724 0.015393453213 0.032326328378 0.021694016023 0.016155583945 0.020656849738 0.024391833679 
0.02921081972 0.024532688992 0.02443872597 0.01808128833 0.02459157951 0.016304727188 0.06190525173 0.028051058387 0.025883162104 
0.036681888395 0.011521538791 0.050863267777 0.051331525092 0.067619952329 0.034020919989 0.040095607315 0.045125896647 0.012452985532 
0.019093151188 0.020074022875 0.02048887364 0.023005500024 0.024229028094 0.072074944071 0.042509985486 0.14057698678 0.053412662818 
0.033053633268 0.041359031593 0.044087309772 0.051159629438 0.050720458717 0.025437872776 0.069423202919 0.1560962409 0.059914921372 
0.052574119786 0.047146876284 0.039813634366 0.019896942157 0.044592846072 0.063991101572 0.021530545864 0.024224966992 0.049900759425 
0.066640901782 0.045422128822 0.062591473321 0.044394906545 0.049491545646 0.022067866997 0.039698812831 0.047703483303 0.022755710382 
0.053199594527 0.044109303936 0.036710711746 0.05521226375 0.056106243643 0.059233362057 0.069467911228 0.08027700829 0.046026361862 
0.033172146891 0.058653721948 0.037349461518 0.045378822256 0.01657625614 0.041022229779 0.054491922065 0.056831123933 0.057426367335 
0.055247600095 0.039638724255 0.041233988905 0.053243273186 0.11129485253 0.036771519165 0.030730405262 0.038447130609 0.050410988395 
0.057878678271 0.081676548593 0.056279144155 0.020862171215 0.024217971367 0.025100896114 0.015258850023 0.018751671621 0.024157317668 
0.01341512061 0.021817671295 0.012623115708 0.021270757736 0.030637516734 0.015452517867 0.023152058143 0.021973945292 0.023990474964 
0.029027213546 0.029004978033 0.036564095433 0.032925962091 0.028452219568 0.029114653699 0.021832425406 0.0537434383 0.042338229661 
0.054297084813 0.028436896545 0.034823372464 0.037211040011 0.023051428861 0.0250931057 0.019778687404 0.021454579456 0.019582826077 
0.019558695785 0.021091510175 0.03306949284 0.08728703279 0.090266988298 0.088596344293 0.040447487468 0.043360098597 0.054055531892 
0.056247892204 0.10599568682 0.029837077695 0.021193050038 0.066399568196 0.16149894946 0.031767449663 0.036892240652 0.065844468924 
0.059534451919 0.089641696367 0.15198477055 0.052020409488 0.056062925819 0.057795768522 0.041522647252 0.061409829493 0.069474983335 
0.031424879426 0.046897720773 0.049783765379 0.021249570354 0.021172620672 0.02567102638 0.03577287923 0.049175219779 0.06329118678 
0.048871977379 0.043524348811 0.063100416423 0.041800519862 0.093039363825 0.063848341264 0.051631757499 0.039129871036 0.069108046324 
0.041756169968 0.057573636678 0.035093583998 0.042165782425 0.039879842072 0.12757502473 0.069029328944 0.072655250636 0.094838206184 
0.078017749096 0.045900499353 0.046853242601 0.045279611862 0.032393357911 0.024796882028 0.032696985065 0.046704781002 0.052907079954 
0.021540653771 0.02448621845 0.032027147467 0.024508040767 0.010179938923 0.0089642106742 0.016173048519 0.0067371702868 0.011180854431 
0.051776854231 0.014621037058 0.024629548171 0.032529611588 0.03254380863 0.021469528934 0.080178170069 0.046780305583 0.031005764234 
0.050130725459 0.060968720322 0.026199613771 0.053718451833 0.037119505799 0.040280017127 0.030363407485 0.029701585573 0.021655001346 
0.028435234278 0.033355372703 0.019218887985 0.016660029466 0.016984077618 0.021890167605 0.040151816351 0.060344109828 0.041281871148 
0.028609988197 0.1744890021 0.061522697823 0.041106537909 0.035837489934 0.080395634885 0.082356022183 0.026362989566 0.052047663699 
0.079534325184 0.089985437755 0.032395379217 0.057072592038 0.05158508424 0.081793507619 0.05155485973 0.062414611311 0.054335229411 
0.020496482593 0.026031476885 0.046307982231 0.072339279739 0.056208710709 0.033349674499 0.023139667765 0.023592779174 0.019220566194 
0.020212531152 0.020268700671 0.021383190801 0.022579790631 0.03608922264 0.045647869475 0.029160937828 0.046431382035 0.059780041531 
0.11856713597 0.02962385125 0.058076725734 0.057726419667 0.07545897206 0.080052415194 0.052147601931 0.095913272095 0.0682224699 
0.064697845527 0.036920294608 0.039621413861 0.041227932018 0.040729744879 0.069254935626 0.055214278491 0.067960934419 0.036380241668 
0.040562423046 0.058970129977 0.087029811808 0.05951658984 0.033726831507 0.044100268712 0.046849366334 0.055923798705 0.015119667946 
0.021358665835 0.035431837716 0.028299273799 0.012963268436 0.0063625951509 0.010815939606 0.01365814981 0.023349698994 0.022624979957 
0.050101052816 0.023144968219 0.023087281906 0.033323877826 0.032491238817 0.03286900963 0.044742873155 0.095745038153 0.0335399932 
0.039851438367 0.035002733406 0.029711652414 0.036458584413 0.029748057247 0.037961960772 0.035302537238 0.02499385885 0.020080427488 
0.02244409392 0.025909071042 0.028184458949 0.024934256125 0.013896849674 0.027405320942 0.0057889932179 0.0058178688939 0.020147435363 
0.020113996281 0.020967903433 0.030960023566 0.12501471466 0.040188762171 0.081389491528 0.094543011022 0.043515907174 0.0360909633 
0.047436235798 0.046479563543 0.043410953291 0.038628225977 0.030425870237 0.057060490504 0.051126100664 0.038359062861 0.0634059393 
0.06799648661 0.059191485303 0.057988476868 0.064826952379 0.033338825116 0.053638256765 0.020098837043 0.015593527272 0.026122874762 
0.034577754179 0.052179115068 0.044571165555 0.021292470369 0.019483458844 0.026654674605 0.018708663332 0.021490069437 0.023241408508 
0.020430203325 0.020437045762 0.019887700171 0.025296507892 0.025453225959 0.02032605056 0.029060516949 0.058426980218 0.081974856528 
0.031837208676 0.039632496867 0.07354730957 0.078407103165 0.044717635619 0.075757879065 0.07216526299 0.085676058755 0.084057885691 
0.083693206028 0.039766525435 0.022957611919 0.034275344717 0.059419565572 0.038250990234 0.032345955703 0.056289539461 0.072737780769 
0.055965569451 0.055678439566 0.054815742224 0.039399065218 0.034889035203 0.032008376406 0.015429164764 0.044325534192 0.019744096513 
0.042619351517 0.018871264704 0.045150271751 0.022115607743 0.022636425749 0.024045962949 0.021732013241 0.032137678306 0.032256928537 
0.033034075217 0.049764778111 0.044570422564 0.029681304629 0.026939999477 0.01888027764 0.026390238439 0.048061208693 0.033518280499 