# vtk DataFile Version 4.2
vtk output
ASCII
DATASET POLYDATA
POINTS 4259 float
-36.4787 21.4387 -2.98718 -36.4338 21.2395 -3.02214 -36.8177 21.2471 -2.6676 
-36.2705 21.2417 -3.18176 -36.9812 21.4501 -2.51621 -37.145 21.2414 -2.36196 
-36.6075 21.7022 -2.8999 -36.1269 21.4266 -3.31569 -36.0578 21.2421 -3.36091 
-37.1985 21.4381 -2.3057 -36.9162 21.8566 -2.62297 -36.3628 21.6404 -3.12947 
-35.8272 21.1642 -3.54938 -35.7523 21.445 -3.63185 -35.6333 21.175 -3.73927 
-37.4141 21.2358 -2.02001 -37.217 21.8893 -2.32122 -36.616 22.1562 -2.93677 
-36.4162 21.9619 -3.10333 -36.1317 21.7183 -3.34791 -35.387 21.4457 -3.94106 
-37.6674 21.6167 -1.58742 -37.6254 21.2405 -1.63859 -37.7328 21.2384 -1.34684 
-37.422 21.4419 -2.02625 -37.3342 21.5066 -2.15099 -36.9094 22.4185 -2.68116 
-35.4352 21.8114 -3.93268 -35.4151 21.2421 -3.93227 -35.2246 21.2389 -4.06192 
-35.1166 21.483 -4.14526 -35.0407 21.2425 -4.18813 -34.8229 21.1787 -4.34919 
-34.8126 21.4675 -4.36817 -34.6246 21.2389 -4.4713 -34.017 21.2551 -4.95154 
-33.8288 21.2331 -5.07681 -34.0246 21.119 -4.9568 -33.8198 21.968 -5.15064 
-33.6504 21.2335 -5.17451 -32.8178 21.3548 -5.64414 -32.8246 21.0389 -5.64758 
-33.0012 21.2402 -5.54776 -37.8158 21.4853 -1.15899 -37.8287 21.2434 -0.985496 
-37.7525 21.4688 -1.34935 -37.5832 21.5541 -1.75011 -37.396 21.9864 -2.10638 
-37.2252 22.4088 -2.36624 -36.6725 22.6397 -2.93919 -36.4046 22.2432 -3.14219 
-36.2057 22.1701 -3.33116 -35.7841 21.9082 -3.64818 -34.5814 21.4517 -4.53938 
-34.2214 21.2382 -4.78426 -34.0941 21.7751 -4.94802 -33.4839 21.9712 -5.35425 
-33.3378 21.5178 -5.40054 -33.4145 21.2441 -5.31495 -33.2055 21.6638 -5.48615 
-32.6203 21.3035 -5.72225 -30.811 21.3861 -6.10383 -30.6246 21.0389 -6.06649 
-30.8246 21.0389 -6.1139 -30.6588 21.2863 -6.07612 -30.4246 21.0389 -6.01367 
-37.8958 21.4465 -0.740394 -37.8754 21.2364 -0.742522 -37.9059 21.2429 -0.191501 
-37.939 22.0225 -0.940656 -37.8317 22.1921 -1.4044 -37.6313 21.9902 -1.75098 
-37.4373 21.8166 -2.01682 -37.38 22.1116 -2.15069 -36.9111 22.646 -2.71799 
-35.9702 22.3518 -3.51843 -35.6391 22.2482 -3.77078 -35.1757 21.792 -4.13305 
-34.7839 22.0383 -4.44996 -34.4621 21.6961 -4.67013 -34.4592 21.2393 -4.57881 
-34.3023 21.4983 -4.75629 -34.1639 22.0779 -4.91213 -33.832 22.4187 -5.14369 
-32.827 21.7539 -5.6617 -32.5143 21.5316 -5.76303 -32.5365 21.238 -5.75502 
-32.2272 21.2455 -5.88815 -31.62 21.6691 -6.0879 -31.6182 21.0432 -6.09331 
-31.8036 21.3163 -6.04058 -31.4187 21.6207 -6.11363 -31.4246 21.0389 -6.12248 
-31.2258 21.6327 -6.12705 -31.0603 21.0387 -6.136 -31.0405 21.4794 -6.12926 
-30.2388 21.2384 -5.95932 -30.2295 21.0053 -5.95434 -37.8872 21.4431 0.173263 
-37.8762 21.2397 0.116738 -37.9181 21.4469 -0.179977 -37.881 22.0115 -1.15671 
-37.7677 22.161 -1.55703 -37.5859 22.3655 -1.93261 -37.4293 22.4329 -2.15617 
-37.2799 22.6321 -2.36755 -36.7315 22.8185 -2.91917 -36.4773 22.808 -3.13765 
-36.2283 22.5452 -3.31766 -35.4078 22.0376 -3.9546 -34.3171 21.7375 -4.77911 
-33.4584 22.3479 -5.3733 -33.1298 22.0525 -5.53735 -32.6065 21.9588 -5.74944 
-32.2332 21.6355 -5.8961 -32.0086 21.5882 -5.97958 -31.8674 21.8728 -6.03342 
-30.8317 22.0169 -6.1139 -30.6239 21.8352 -6.08718 -30.4188 21.6814 -6.0394 
-30.0246 21.2389 -5.8442 -30.0246 21.0389 -5.84078 -37.8258 21.2411 0.462676 
-37.9722 21.8749 -0.471417 -37.9659 21.9796 -0.747066 -37.9522 22.2333 -1.06148 
-37.7968 22.443 -1.59521 -37.4644 22.645 -2.18852 -36.9859 22.8188 -2.71066 
-35.8994 22.6505 -3.59775 -35.6629 22.803 -3.78862 -35.4241 22.3585 -3.94298 
-35.1771 22.1621 -4.1615 -34.9986 22.2098 -4.31262 -34.4235 22.0522 -4.72907 
-34.0707 22.4314 -4.98427 -33.4975 22.7318 -5.34885 -32.8274 22.1831 -5.6699 
-32.2278 21.9909 -5.91707 -31.8363 22.6242 -6.03716 -31.4207 22.4388 -6.10117 
-31.0089 22.4196 -6.11795 -30.1836 21.9105 -5.97358 -30.0312 21.472 -5.8739 
-29.8648 21.2423 -5.72167 -37.8842 21.6251 0.395223 -37.9517 21.7977 0.0434236 
-37.9686 21.8355 -0.157538 -37.9046 22.4389 -1.3568 -37.436 22.9857 -2.37532 
-36.8212 23.0941 -2.94852 -36.5249 23.019 -3.14903 -36.0501 22.8336 -3.49488 
-34.7155 22.1964 -4.51757 -33.8477 22.8182 -5.14903 -33.2749 22.5728 -5.46461 
-33.1045 22.2397 -5.56054 -32.8267 22.5527 -5.68341 -32.2449 22.202 -5.91419 
-32.0143 22.3966 -5.99058 -31.5178 22.6394 -6.09734 -30.7552 22.4336 -6.11016 
-30.5769 22.219 -6.07447 -37.8284 21.573 0.647338 -37.9858 22.0354 -0.0757647 
-38.0169 22.1758 -0.582349 -38.0504 22.3671 -0.736514 -37.825 22.6451 -1.66179 
-37.6259 22.6184 -1.96361 -37.6317 22.9826 -2.16621 -37.0958 23.0334 -2.70145 
-35.4062 22.7349 -3.98044 -35.1867 22.6143 -4.15249 -34.9495 22.5597 -4.3615 
-34.5419 22.4749 -4.65849 -34.2306 22.8286 -4.90514 -33.8548 23.0187 -5.15023 
-33.0693 22.8298 -5.56538 -33.0043 22.5051 -5.5945 -32.6834 22.6929 -5.74952 
-32.1315 22.8456 -5.96158 -31.7641 22.8488 -6.07319 -31.1162 22.6379 -6.12614 
-30.1184 22.2206 -5.95521 -29.8532 21.4811 -5.74896 -37.7889 21.2389 0.643199 
-37.851 22.0384 0.745435 -37.9293 22.013 0.385354 -38.0284 22.2246 -0.315867 
-38.058 22.5142 -0.976136 -38.0175 22.5432 -1.15805 -38.0133 22.685 -1.33599 
-37.6061 23.2741 -2.35747 -37.4049 23.3466 -2.58054 -36.9341 23.2459 -2.9339 
-36.2068 23.05 -3.41268 -35.7684 23.0371 -3.73365 -35.3286 23.0538 -4.09356 
-34.8008 22.5523 -4.48459 -33.5963 23.0425 -5.30715 -32.7947 23.0586 -5.72437 
-32.19 22.5995 -5.9419 -31.4282 22.8834 -6.1404 -30.741 22.6502 -6.12599 
-30.2897 22.4325 -6.02823 -30.0246 22.0389 -5.90177 -29.8247 21.8632 -5.75689 
-29.6346 21.253 -5.49944 -29.707 21.0389 -5.5568 -29.8246 21.0389 -5.68142 
-37.7651 21.57 0.872386 -37.7335 21.2389 0.843196 -37.7886 21.768 0.86225 
-38.0009 22.2509 0.202727 -38.0917 22.435 -0.482451 -38.2058 22.791 -0.782828 
-38.0266 22.9101 -1.53155 -37.7478 22.829 -1.909 -37.7959 23.2854 -2.15232 
-36.5941 23.3977 -3.2451 -36.3778 23.2091 -3.32781 -35.0179 22.8384 -4.32506 
-34.7516 22.8793 -4.52686 -34.4632 22.9935 -4.75568 -34.2305 23.1592 -4.91787 
-33.9112 23.239 -5.13053 -33.1313 23.0312 -5.54403 -32.4109 22.8917 -5.86806 
-32.0639 23.0857 -6.0133 -31.4719 23.1961 -6.21255 -31.1903 22.8436 -6.15522 
-30.8192 22.825 -6.16154 -30.3146 22.614 -6.07951 -30.0242 22.4349 -5.95679 
-29.7019 22.2151 -5.74472 -29.591 21.8355 -5.56422 -29.6223 21.5759 -5.55458 
-37.5982 21.2361 1.19047 -37.6489 22.0837 1.37968 -37.9327 22.2559 0.598754 
-38.0769 22.4758 -0.00484185 -38.2331 22.9374 -0.972171 -38.1476 22.8389 -1.1568 
-38.1497 23.0916 -1.42563 -37.894 23.224 -1.98495 -37.7704 23.6437 -2.35944 
-36.8459 23.4617 -3.09737 -36.0833 23.2493 -3.54975 -35.7104 23.2576 -3.83802 
-35.0262 23.1733 -4.35039 -33.598 23.2424 -5.32993 -33.1258 23.2608 -5.58945 
-32.7501 23.2302 -5.78028 -31.8229 23.1133 -6.10789 -31.2237 23.0778 -6.21281 
-30.4934 22.8445 -6.15222 -30.0485 22.7354 -6.05827 -29.7933 22.4633 -5.86807 
-29.7226 22.07 -5.7179 -29.3838 21.63 -5.33324 -29.6246 21.0389 -5.46558 
-37.6274 21.6583 1.27178 -37.755 22.2637 1.18793 -37.9641 22.2389 0.443202 
-38.0766 22.5696 0.238049 -38.2183 22.7771 -0.359344 -38.221 22.7792 -0.54728 
-38.3284 23.1754 -0.771096 -38.0194 23.1789 -1.76252 -38.019 23.4508 -1.94345 
-38.0046 23.638 -2.06711 -37.4062 23.6428 -2.69504 -37.1895 23.8461 -2.93701 
-36.5904 23.778 -3.40433 -36.2174 23.4568 -3.52223 -35.2948 23.236 -4.15245 
-34.7788 23.101 -4.52264 -34.5451 23.2584 -4.71782 -34.2361 23.4003 -4.95875 
-33.7937 23.4288 -5.26528 -32.3676 23.2933 -5.95748 -32.0012 23.4888 -6.16447 
-31.4436 23.4596 -6.30721 -30.9527 23.0312 -6.21356 -30.4487 23.0692 -6.21254 
-30.2043 23.0826 -6.18993 -29.8174 22.6992 -5.96794 -29.416 22.4457 -5.67666 
-29.4621 22.0324 -5.52039 -29.3875 21.8401 -5.38822 -29.2717 21.2445 -5.11872 
-29.5277 21.0389 -5.3568 -37.5553 21.5895 1.41589 -37.3925 21.2372 1.63534 
-37.5623 22.2338 1.62825 -37.8645 22.5648 1.08398 -38.0719 22.6798 0.453443 
-38.2101 22.9012 0.0926389 -38.2371 22.8933 -0.131698 -38.3406 23.3106 -0.954343 
-38.2382 23.0903 -1.16514 -38.143 23.5343 -1.76474 -38.001 23.8444 -2.14715 
-37.5936 23.8362 -2.56534 -36.8994 23.8373 -3.18795 -36.4344 23.8163 -3.53261 
-35.9362 23.3878 -3.71597 -35.439 23.4673 -4.11282 -35.1656 23.4423 -4.30377 
-33.4775 23.4745 -5.46881 -32.9991 23.432 -5.71792 -32.4442 23.441 -5.96558 
-32.2246 23.4389 -6.05731 -31.2395 23.6926 -6.41745 -30.0498 23.1263 -6.17699 
-29.7745 23.156 -6.12265 -29.5726 22.6431 -5.83712 -29.3955 22.2176 -5.55917 
-29.1872 21.8406 -5.21031 -29.2189 21.6362 -5.15978 -29.3411 21.0389 -5.1568 
-29.4246 21.0389 -5.24375 -37.4041 21.7105 1.76943 -37.649 22.4558 1.55322 
-37.7675 22.6969 1.46171 -37.9788 22.7809 0.93051 -38.1048 22.9693 0.646001 
-38.3339 23.2044 -0.275165 -38.3634 23.2802 -0.531125 -38.4223 23.616 -0.739923 
-38.249 23.4005 -1.40692 -38.2226 23.4979 -1.55156 -38.1167 23.908 -1.97686 
-37.8442 23.901 -2.34565 -37.4035 23.8892 -2.76569 -37.022 24.0654 -3.14931 
-36.8116 24.0386 -3.31383 -36.4305 24.0521 -3.61143 -36.1121 23.7876 -3.74621 
-34.8273 23.433 -4.55706 -34.5193 23.4476 -4.76891 -34.1617 23.6619 -5.09834 
-33.8455 23.7793 -5.35457 -32.67 23.5867 -5.92358 -32.2186 23.6459 -6.15336 
-31.701 23.7634 -6.35976 -31.4243 24.0763 -6.51653 -31.0311 23.7613 -6.45249 
-30.8159 23.5693 -6.39194 -30.2214 23.5555 -6.34028 -30.0325 23.5645 -6.30448 
-29.4955 22.959 -5.94964 -29.187 22.9949 -5.82393 -28.958 22.5637 -5.52061 
-29.2246 22.2389 -5.48117 -29.2248 22.0394 -5.35666 -29.0265 21.7023 -4.94646 
-29.2015 21.0453 -4.99836 -37.2893 21.2292 1.84634 -37.4119 22.4528 2.03331 
-37.9747 23.1015 1.17388 -38.1994 23.0701 0.398709 -38.3254 23.3306 0.0470094 
-38.4 23.6389 -0.9568 -38.3438 23.5212 -1.14323 -38.2241 23.9124 -1.76503 
-38.0299 24.1324 -2.15944 -37.6463 24.268 -2.59135 -37.1893 24.0528 -2.98808 
-35.7462 23.7203 -3.99393 -35.2143 23.6686 -4.35089 -34.9123 23.6646 -4.57957 
-33.6 23.8265 -5.53629 -33.1525 23.6826 -5.74174 -32.6316 23.8375 -6.04184 
-32.3248 23.8337 -6.1819 -31.9815 23.8381 -6.3193 -31.2242 24.1059 -6.54769 
-30.6167 23.7607 -6.44793 -30.4367 23.5801 -6.37268 -29.8253 23.542 -6.24248 
[...]
CELL_DATA 8400
FIELD FieldData 1
Area 1 8400 double
0.05184068274 0.022817118514 0.046097468229 0.076367482715 0.045663512566 0.025697399728 0.03023385278 0.057713236954 0.11862758077 
0.039692549571 0.050016171068 0.024293370003 0.037520855901 0.043045938499 0.068378451121 0.088802271259 0.09583211313 0.052269994037 
0.045861687607 0.067900172152 0.064682605191 0.058641441943 0.045005682426 0.03316945329 0.046485185155 0.12070777509 0.11538862296 
0.060959041556 0.053400638449 0.07166575532 0.087742310807 0.028803825167 0.02352802157 0.026991961538 0.02983786868 0.03309608647 
0.01544580364 0.075003772737 0.032482170277 0.046030117941 0.029571375586 0.032460531401 0.056822416792 0.01572908586 0.063565961254 
0.11601123659 0.089153795348 0.040036443823 0.077005598738 0.10798128235 0.10383563854 0.062892441487 0.038813468005 0.054616090607 
0.03149499229 0.01797914285 0.058234177012 0.12085852413 0.14509184328 0.037276328286 0.065720109087 0.056081928374 0.033686911547 
0.035694846335 0.025588779719 0.058222179442 0.026120324478 0.075848536429 0.023155912811 0.090602355676 0.039500089551 0.059029281341 
0.029116845836 0.029518070318 0.019810356769 0.064534545322 0.050963523352 0.037357092818 0.073208029119 0.03998160152 0.074398870862 
0.12346792147 0.085698313788 0.050319307688 0.10851309369 0.036867223152 0.021237518978 0.035230886557 0.082352474498 0.059171000185 
0.088535004482 0.10872268622 0.048765988334 0.083406160165 0.042380456159 0.013971438402 0.049346347647 0.059873884958 0.056993788455 
0.1082480493 0.052157699923 0.04079961437 0.017363864748 0.048129024505 0.023596461499 0.031681630854 0.057279210076 0.092921417153 
0.059168506979 0.073367544521 0.044525978835 0.058248358543 0.06974509027 0.036504107857 0.024552398688 0.047027541771 0.057923755225 
0.029214255097 0.083564335127 0.050518795425 0.058786608263 0.080616086016 0.037104028773 0.037415852772 0.084808210318 0.12393998853 
0.039494083691 0.041097006376 0.041123053967 0.033632075555 0.043846408762 0.093599452199 0.083735924852 0.046722197578 0.077090639565 
0.075479282115 0.034706248864 0.060775402548 0.068807753786 0.063985929495 0.063446934442 0.056237714364 0.042332228397 0.071836948435 
0.044091721476 0.092099747674 0.028351093228 0.023454828412 0.035668062942 0.03624955892 0.12148659892 0.052640723086 0.024699855298 
0.068506255778 0.023970194488 0.03531775715 0.081413307113 0.04505770868 0.031836286697 0.028901277939 0.045912877099 0.029242417522 
0.02993198117 0.079074800105 0.059051490347 0.11523623 0.045301110626 0.056350786525 0.074844923073 0.080862897169 0.021804245804 
0.051564419151 0.051473852131 0.082540737447 0.073833455742 0.073825096322 0.070666630173 0.050670866614 0.090049074681 0.054610098886 
0.04668530068 0.050945516339 0.098363271347 0.082932167867 0.079122591828 0.089521900488 0.089757609205 0.064123657803 0.060260671216 
0.076570747477 0.028493848694 0.020144902674 0.049523181643 0.063322418773 0.061946781648 0.073961353547 0.018316950265 0.038524595399 
0.033011166639 0.082408034929 0.029499072256 0.047112643362 0.093802497019 0.047162764839 0.03582228026 0.077339485336 0.049279504406 
0.037496644693 0.076949430577 0.050954804872 0.042956498836 0.028396279672 0.035487233576 0.031005108146 0.054613158127 0.057292853479 
0.080111888774 0.044502479989 0.03930401725 0.028848829262 0.044038509526 0.043983993481 0.042938930073 0.062820738473 0.065587866935 
0.15651522637 0.057415268783 0.16428754184 0.052351921118 0.044603403119 0.044135207348 0.084192570594 0.070342817152 0.023598452035 
0.047856027505 0.052045229141 0.039889227418 0.03310575811 0.036406998308 0.065037918001 0.044494772715 0.027235152391 0.051538374752 
0.035692050727 0.050900967859 0.055116230837 0.044101035299 0.049040285514 0.060110007121 0.041748273747 0.06164373268 0.073259479725 
0.053189487143 0.061638139468 0.066350893016 0.11813171336 0.089357183656 0.040188868591 0.05045035976 0.056106470675 0.042535329893 
0.036562780794 0.062926275411 0.15451507541 0.027318304576 0.090164433218 0.055042694849 0.03598455667 0.040309056274 0.0440235546 
0.028454816634 0.046042042628 0.073410309525 0.042694761937 0.026189635814 0.030993014242 0.062722559658 0.068421289761 0.021807008239 
0.057632527028 0.043315790407 0.031638361393 0.042535078418 0.040321323671 0.047579084807 0.038640372103 0.051209000668 0.044486859918 
0.086484459969 0.033179796971 0.025151471151 0.048014654701 0.055303698174 0.055984327281 0.054806571397 0.057197306033 0.034141285438 
0.052149125463 0.11019631341 0.04549189873 0.04829081755 0.079792460835 0.0463312213 0.043436879944 0.033937376782 0.036772565125 
0.10813030208 0.042399507766 0.028696093022 0.043054587455 0.0403484663 0.04972616662 0.040645185606 0.050625306832 0.050756486788 
0.030004297866 0.041547839827 0.038514022802 0.017428052157 0.034592361038 0.039314052 0.042271803308 0.072123721433 0.054018104821 
0.052893206498 0.033435565893 0.030582083337 0.051786049068 0.028851267645 0.026581839588 0.050085041758 0.038806863213 0.040011050517 
0.044426650758 0.051075850011 0.080580961783 0.090829928433 0.036878745696 0.058111480846 0.067835628447 0.076393051764 0.045942761357 
0.042091877068 0.031800506428 0.053504621172 0.081704928308 0.073544339767 0.034057241624 0.0522502443 0.01821805413 0.096013036488 
0.065585815667 0.066575726809 0.037676810224 0.046315202579 0.055755486682 0.023442223315 0.033943721786 0.046812022433 0.04424597122 
0.029557788198 0.042134941807 0.06911524717 0.058233308096 0.050577287341 0.033797926426 0.062179322412 0.023237697909 0.093300053934 
0.043071036954 0.054346418924 0.063448407191 0.055466721925 0.059259500038 0.044213932439 0.030423159931 0.03045159657 0.034680863473 
0.056788092939 0.061067195506 0.035081310099 0.053792258562 0.062424459349 0.075637040978 0.039291756544 0.04441413111 0.033740907501 
0.056241929909 0.062977278396 0.066015066593 0.048162857217 0.088653532895 0.046298386388 0.04466367502 0.037289710072 0.052516925237 
0.044064710203 0.041112170168 0.037452354711 0.03550844625 0.051238476683 0.037562755496 0.028253035609 0.037921929546 0.029760458645 
0.04745584413 0.02696591156 0.043258171393 0.025637563617 0.059719203233 0.026285156369 0.035052044837 0.033178504881 0.038588382681 
0.053895093365 0.013199200866 0.086995423018 0.042779761157 0.099619630795 0.066325651076 0.068456365152 0.017868508046 0.028282591754 
0.038335572716 0.085244586222 0.043257670941 0.039242775159 0.043086674446 0.049931727336 0.041540643228 0.077375123881 0.054885592171 
0.026551655586 0.069688641372 0.076332631086 0.17295393789 0.061597603339 0.052740972264 0.042181316824 0.052680534439 0.048657726728 
0.032679605619 0.050906987708 0.037596783205 0.053939398231 0.045005142603 0.046107499132 0.036178095076 0.062420922742 0.037690451351 
0.083293057471 0.069717300521 0.052873568421 0.048566623667 0.036757007416 0.031960082271 0.038389924513 0.037568673317 0.056506947518 
0.059022160256 0.03777403508 0.031811331845 0.053295427226 0.024375589831 0.035322067827 0.035088422421 0.035807678311 0.10192819521 
0.015636823909 0.087560566509 0.036485146235 0.037736122995 0.040291134752 0.095948530056 0.036119050437 0.040108725585 0.050204458053 
0.058475677505 0.034461289683 0.047696830952 0.037110670788 0.025953359387 0.036675735555 0.06948671641 0.033197210148 0.039050492134 
0.039477377133 0.048424978461 0.042202172109 0.07481338024 0.073857710151 0.038453735779 0.094728937348 0.032440832111 0.033207292236 
0.060537819723 0.041216675491 0.036047641298 0.035690922703 0.046355887237 0.050022322998 0.040793620332 0.06330844258 0.040523014008 
0.034273920161 0.041216756649 0.048877609566 0.10953830517 0.068881375224 0.087596578879 0.056044924545 0.0284428502 0.031986410401 
0.059828241525 0.032690817488 0.04271292945 0.043995466516 0.035276473824 0.027079604337 0.028623064575 0.047538364282 0.054756617195 
0.016437846632 0.084775717631 0.070875941186 0.053153467799 0.069158501209 0.083242060611 0.065168431851 0.048850219468 0.046650655385 
0.050442217285 0.045539230327 0.041714667428 0.061616692968 0.043530217502 0.039469838089 0.044205826249 0.046383689125 0.037740894871 
0.02586153297 0.023845929899 0.034742090954 0.041289871627 0.033275521768 0.035542548633 0.044323165845 0.043433965598 0.023570391218 
0.071488608841 0.067461801358 0.053488931318 0.037758196722 0.071061818109 0.024964265854 0.033765518475 0.071109947351 0.068647949765 
0.052007948532 0.060352742967 0.051537977018 0.018052225859 0.026683797643 0.09026859396 0.064699832085 0.083173556089 0.1404392361 
0.061041801651 0.035367140332 0.057577127693 0.076456810423 0.048254524649 0.077885428485 0.064092008547 0.01794566367 0.029777974573 
0.028963453219 0.025474260867 0.056947716527 0.021655256691 0.013001773988 0.056638355183 0.11367795578 0.060462520963 0.060460757584 
0.10416843664 0.05592988008 0.11313437225 0.048874179704 0.068380377998 0.05027623012 0.061485864927 0.067342487179 0.052413858552 
0.03640696269 0.045366510638 0.05867348305 0.025843927434 0.044407757388 0.052756515055 0.029639812982 0.036878379534 0.071799517064 
0.060612439419 0.02952819429 0.024163161201 0.029482740381 0.066442594415 0.047877938513 0.088444068559 0.098204705205 0.039192241994 
0.050824512589 0.063071548928 0.049563236628 0.073631257006 0.058525351744 0.069518747736 0.061478804314 0.036318261694 0.026738489906 
0.013031733756 0.055630984037 0.0881422147 0.04329936012 0.044654724094 0.074760340163 0.08952876323 0.058167401759 0.047751213264 
0.04913718445 0.057298120756 0.037813010093 0.056685386075 0.073489421753 0.080597612795 0.031347999709 0.032546512385 0.034575374936 
0.031072896647 0.097221749486 0.032478844971 0.092301886356 0.061701939054 0.047597513716 0.072301654338 0.061806608123 0.083408854777 
0.06691127861 0.10857736851 0.071292844136 0.072703631003 0.056201440603 0.066234223051 0.054344925513 0.022704418184 0.031765762053 
0.061097837329 0.034106365605 0.072054332737 0.045634142482 0.045241580339 0.061045434408 0.060352730441 0.069355568699 0.071291295703 
0.037745242549 0.029607978903 0.046092689737 0.083501088576 0.075423911102 0.063774393416 0.061078718809 0.044683509386 0.045469825884 
0.069628543532 0.067831165989 0.038249862102 0.085667843355 0.087531953671 0.057137661148 0.071060428994 0.037651905189 0.069181862378 
0.032355728738 0.030621137855 0.045730073794 0.039829089622 0.04596058507 0.04373425599 0.049609313857 0.036390287279 0.032605775244 
0.036821522144 0.052340205504 0.062823154482 0.060744781764 0.044926960499 0.020954313829 0.032899062739 0.044445024401 0.042185102516 
0.05473005254 0.03217270232 0.016946972765 0.040329373863 0.040297008098 0.079268914213 0.031634321292 0.049996490576 0.04177055393 
0.073411056415 0.037298710227 0.041889215668 0.033033667845 0.068672988223 0.094027142858 0.058797831658 0.043624704971 0.074187516518 
0.032397466625 0.024997581787 0.023511926136 0.031389062835 0.040767525823 0.032852897932 0.040318849166 0.045446551665 0.046581005227 
0.0465279758 0.066252086961 0.065873201429 0.046410050085 0.048013199445 0.035439288362 0.044466777533 0.055814972764 0.074951380318 
0.096024073485 0.099683039383 0.051463239144 0.088395304461 0.053695873951 0.049014559967 0.045111256272 0.075938183648 0.07404205045 
0.042676121204 0.032484358081 0.040021396052 0.032550176931 0.047995316028 0.064064497149 0.051540471742 0.046675056352 0.039233514146 
0.032613618984 0.030484146472 0.030158344207 0.044797175124 0.030266537221 0.032879436056 0.064663185891 0.06248817878 0.022994707803 
0.027136294305 0.041808541093 0.021784259777 0.023407775541 0.10735642074 0.033758096642 0.021633302152 0.038944877873 0.040994939107 
0.036491960118 0.038232115961 0.083292565749 0.038275292537 0.060367520093 0.062082015192 0.062959255806 0.050081476345 0.025396108663 
0.041069050894 0.017406156946 0.0095234142219 0.01931098218 0.028623146484 0.045178866362 0.030393512529 0.028173512929 0.042454823322 
0.031195730489 0.019911470233 0.022705567119 0.025647053407 0.020950830385 0.036495925448 0.02898202801 0.024265762005 0.044009486573 
0.022036444965 0.12689210371 0.071481396717 0.037084841465 0.052274594469 0.04589734238 0.049196273952 0.035465833109 0.079779464179 
0.10947966312 0.11564889514 0.072914719888 0.052313881672 0.097106324648 0.039013075843 0.04183102081 0.040617645758 0.060879637923 
0.085416738494 0.041676722093 0.03340401737 0.031890307531 0.07693938576 0.056667478116 0.024149606922 0.044897515634 0.03332969001 
0.032696421093 0.03120742147 0.037079156906 0.051386648704 0.038278706919 0.039246465804 0.052582065809 0.073012966315 0.057999006501 
0.020178455562 0.046274070604 0.027565435568 0.078491407485 0.06502441279 0.043592824139 0.041875068039 0.038180360817 0.037359649095 
0.031635141048 0.01880031912 0.024991375472 0.05058312312 0.037618067926 0.064603043952 0.07157175503 0.084048519974 0.025871371387 
0.038805185411 0.040198703562 0.024589899275 0.027055806748 0.026782076761 0.019085467815 0.028633001704 0.030576966126 0.019561383135 
0.037968624449 0.020673414403 0.032867959542 0.022350298035 0.01885946431 0.020124143612 0.020187206248 0.020942485295 0.021230375203 
0.017397997159 0.014207707839 0.026978092138 0.024952716952 0.014149650659 0.0345252961 0.074183022242 0.059937083249 0.068086227992 
0.069970453252 0.037116726286 0.092353349971 0.043238518935 0.066292220698 0.054938300438 0.054484383742 0.064000820102 0.043948896708 
0.073324656109 0.036490329593 0.044022126869 0.077929354639 0.039047826856 0.048046365466 0.14944534279 0.050238561442 0.03592400215 
0.02665702036 0.043981545716 0.044299536112 0.040675874171 0.051302649805 0.050177606515 0.07427435859 0.054083642453 0.041486669293 
0.041582250074 0.021186772274 0.050488083582 0.060664651051 0.11503505201 0.048590305578 0.033116688951 0.038498908838 0.061843743028 
0.066167792312 0.051698463192 0.10536089489 0.040494542693 0.035124963254 0.026406432901 0.050264508393 0.058569070325 0.059988449894 
0.072809958991 0.065461399771 0.072666407503 0.074881662651 0.036216421118 0.016356725515 0.024263268825 0.016048438716 0.035491632238 
0.015490558993 0.035199265954 0.015017668089 0.021648342943 0.022860199834 0.018985123746 0.038730783165 0.042931977188 0.025241492798 
0.020852232656 0.020146278365 0.02024352017 0.023013108377 0.0067685965543 0.015786324895 0.023190449398 0.024618402986 0.022957111163 
0.038172248902 0.038146048266 0.047421460591 0.068483492104 0.040623114562 0.057369887328 0.085417073009 0.12348480511 0.029944534596 
0.051302040412 0.063756980521 0.053288579122 0.060213135291 0.049376505605 0.058560287299 0.070092830989 0.11899019269 0.11114282086 
0.07349864119 0.075854051051 0.061356072219 0.10631828793 0.029741679906 0.0683361162 0.034509011122 0.034482353498 0.035000089452 
0.047781300202 0.046968445145 0.060780378079 0.02601647464 0.02946072491 0.021017703361 0.0226048748 0.017370235935 0.021571806775 
0.031756228231 0.031019550147 0.025285964416 0.031308209812 0.037740794803 0.078122648743 0.045976280641 0.074033759525 0.138830884 
0.015028376134 0.043713542589 0.052582100458 0.035713895851 0.03105595047 0.092074448285 0.034441417864 0.041441146969 0.086544119323 
0.060278286693 0.04603890788 0.041207426132 0.04439374344 0.018527998388 0.036659073154 0.027552541328 0.013740951053 0.030889600313 
0.0086198004462 0.023910869435 0.031714760976 0.014092639644 0.031460323335 0.025540093285 0.026398527509 0.032702382155 0.034907056233 
0.020947895062 0.023466307726 0.023743044455 0.0080124925981 0.011284814421 0.024852993376 0.022248081322 0.022482378819 0.026053011933 
0.033887049672 0.030366977555 0.040822363236 0.041656752103 0.077780626445 0.13856662896 0.098392286244 0.05483738161 0.04294239208 
0.067432572243 0.064451445207 0.054468791739 0.046658338402 0.046859440258 0.073307729616 0.058449247885 0.1143705726 0.067560344703 
0.04334335676 0.043144841035 0.028362496559 0.057544980351 0.031737179814 0.04147282428 0.025820793044 0.036369691397 0.024974094345 
0.029210754879 0.043989227093 0.023484689586 0.019483036818 0.031918938237 0.018788276713 0.020957040208 0.027980591714 0.022739145082 
0.029542692657 0.023743036581 0.020752331441 0.038529516403 0.041655026871 0.040506843204 0.052005217839 0.065598939603 0.045519522159 
0.098521562203 0.032496706212 0.030762405474 0.029813436677 0.037385074028 0.036995851631 0.059217036674 0.21418196815 0.0403753131 
0.06704528177 0.056555695804 0.036898429536 0.050411804015 0.077161310121 0.050155530683 0.023191531743 0.023342602355 0.0083771878325 
0.0066691433553 0.042181120158 0.017859797528 0.041255325407 0.063455760252 0.01950760985 0.031799282854 0.019739229481 0.029198618725 
0.039553292474 0.026363638324 0.018386569435 0.022930627579 0.02703052178 0.026444006076 0.010673285588 0.024531292808 0.0085666070932 
0.02791218005 0.0090968221387 0.0096358465911 0.038539500102 0.033045524923 0.049880656925 0.045109235633 0.084733626254 0.08374721967 
0.073409341309 0.084179731906 0.046619714746 0.076142293397 0.048081362938 0.03667186006 0.097867266957 0.072717391924 0.04208693745 
0.046496191615 0.044380082741 0.031476612573 0.046856007847 0.061817558361 0.031088943841 0.10100803558 0.053352497835 0.051469127648 
0.026110796537 0.026760525064 0.02520458956 0.029789444516 0.02842308897 0.020077142735 0.038897348164 0.025192481229 0.028162410386 
0.010014877273 0.022057886732 0.022529602814 0.022126959426 0.027612453929 0.024859163928 0.029283508119 0.040590929174 0.024538086182 
0.050130813853 0.035045757922 0.048236781412 0.060366961977 0.033771607304 0.03289388976 0.033582264177 0.050435031474 0.040334404129 
0.033983874718 0.024659536606 0.11548512567 0.10585523294 0.03425899524 0.06341065756 0.037611772022 0.037099488773 0.058538011354 
0.019626675151 0.03960885748 0.032592852682 0.022531492987 0.032489839477 0.037983959994 0.02911649758 0.071582014472 0.02118860366 
0.053898102695 0.04250494208 0.037255488019 0.027186521685 0.019870131901 0.012515493994 0.03840117053 0.021254647075 0.0082722639258 
0.028533925995 0.023660164628 0.0251236133 0.0272986875 0.026186916424 0.026511252899 0.021501062121 0.039004713289 0.024078358609 
0.033437724872 0.057846013896 0.048381592383 0.030420011746 0.081487436295 0.048634693186 0.051778016519 0.086190626784 0.037924103732 
0.085538236213 0.13286362165 0.04029563765 0.054264041431 0.065081302182 0.061654366635 0.085865119357 0.071510479503 0.036239821612 
0.020061571762 0.029815585866 0.034724869302 0.021710615987 0.027465477086 0.021267773564 0.020357937553 0.026398282018 0.028683642168 
0.031223215401 0.032143200964 0.020359169772 0.010317771856 0.029807518419 0.021701115508 0.027412337627 0.0086228584176 0.0093325791555 
0.028012691389 0.026946401579 0.046523171152 0.042459556898 0.024341564488 0.031670483912 0.016167038655 0.049871558578 0.10370169656 
0.056809371682 0.068626477323 0.060597760952 0.046494002612 0.044570553333 0.041787096134 0.029949239961 0.052363441356 0.058420632333 
0.027303006549 0.043883005146 0.059015957504 0.070779610101 0.040081185129 0.035133193363 0.021314520701 0.036303030198 0.02504679083 
0.020240735902 0.027234053483 0.033608107175 0.019786622018 0.05893011517 0.055272148044 0.066234383689 0.014465785423 0.03413710599 
0.036055361581 0.026768247024 0.038182294791 0.04540898485 0.013675309151 0.026236341228 0.025369772024 0.045784455116 0.02400277495 
0.02458397824 0.01752223384 0.018447079958 0.019967177329 0.021576636793 0.013819164419 0.025756458637 0.020557469664 0.021315188779 
0.037089917782 0.03813070769 0.11700897594 0.055803570321 0.037670639226 0.077485721141 0.096897176069 0.047458364353 0.092786104892 
0.038093916112 0.051439516089 0.074753148833 0.052886464787 0.036482304773 0.025123841406 0.020454271002 0.02035242258 0.019852948275 
0.020058816491 0.020728438299 0.021535091818 0.022667787443 0.01105490676 0.015153470896 0.017234703704 0.029324363842 0.032152421545 
0.032333198381 0.032756373913 0.019477413495 0.032171775617 0.023358693257 0.018072995191 0.029856017399 0.025492311327 0.022421653196 