# vtk DataFile Version 4.2
vtk output
ASCII
DATASET POLYDATA
POINTS 3595 float
-37.8039 21.4511 -1.908 -37.6391 21.2017 -2.07377 -37.7885 21.1468 -1.92176 
-37.2065 21.1644 -2.4933 -37.3994 20.9504 -2.31102 -37.977 21.1495 -1.65739 
-37.9521 20.95 -1.72057 -38.0089 20.95 -1.63801 -37.4711 21.9165 -2.294 
-37.4233 21.6484 -2.31909 -36.8142 21.139 -2.85681 -36.9905 20.9484 -2.7071 
-36.7817 20.9459 -2.8982 -37.9843 21.5112 -1.69468 -37.816 21.8907 -1.9227 
-37.2243 21.8547 -2.52449 -36.8816 21.3506 -2.811 -36.5246 21.15 -3.10982 
-38.1779 21.7155 -1.41687 -37.9803 21.8877 -1.72026 -37.7919 22.145 -1.98425 
-37.0016 21.6188 -2.71046 -36.5678 21.4285 -3.09552 -38.2847 20.95 -1.12056 
-38.1888 21.1462 -1.30872 -38.2026 20.9481 -1.28225 -37.5031 22.3338 -2.31113 
-37.118 22.3044 -2.66114 -36.7789 21.6345 -2.91022 -36.3618 21.4187 -3.25748 
-36.2014 21.1511 -3.36103 -35.998 21.3987 -3.5412 -35.7823 21.1494 -3.67485 
-38.3609 21.1446 -0.926317 -38.3648 20.95 -0.920566 -38.4303 21.1517 -0.598276 
-38.2775 21.1551 -1.13248 -38.3302 21.6156 -1.12 -38.2046 21.937 -1.4134 
-37.9985 22.2424 -1.76215 -37.7805 22.3188 -2.02941 -36.5717 21.8312 -3.0833 
-35.7617 21.4729 -3.72689 -35.5763 21.1541 -3.83966 -34.501 21.4857 -4.67497 
-34.3269 21.1423 -4.72755 -34.7618 21.161 -4.47903 -34.1314 21.345 -4.87223 
-33.8578 21.1472 -5.01395 -33.2628 21.5083 -5.31241 -33.2357 21.0859 -5.30345 
-33.4111 21.1629 -5.22363 -32.7724 21.1593 -5.51731 -32.5972 21.8291 -5.58874 
-32.5979 21.1521 -5.5885 -32.4073 21.1524 -5.64841 -32.1916 21.6151 -5.68403 
-32.0516 21.153 -5.70492 -32.0067 21.7331 -5.70518 -31.8127 21.0648 -5.71991 
-31.8042 21.8012 -5.71327 -31.618 21.1511 -5.71072 -31.4077 21.9072 -5.68907 
-31.4463 21.1523 -5.69243 -38.4832 21.4739 -0.508763 -38.4731 21.15 -0.320564 
-38.4188 21.3553 -0.800535 -37.5838 22.5473 -2.27016 -37.3511 22.544 -2.47507 
-36.8868 22.5372 -2.87964 -36.5841 22.3443 -3.1117 -36.2695 21.8231 -3.33685 
-36.0468 22.0602 -3.51945 -35.5819 21.4949 -3.87315 -35.0249 21.1603 -4.28314 
-35.0089 21.0195 -4.32056 -34.7912 21.6672 -4.4988 -33.7427 21.3538 -5.0979 
-33.6603 21.1501 -5.11879 -33.7265 21.5463 -5.10832 -33.3074 21.8952 -5.30878 
-32.8584 21.7215 -5.49358 -32.4058 21.8464 -5.63868 -31.6134 21.8562 -5.70824 
-31.2401 21.1592 -5.6574 -38.5332 21.3632 0.0401084 -38.4869 21.1486 -0.0404821 
-38.494 21.1429 0.375334 -38.5062 21.4399 -0.312236 -38.4101 21.6478 -0.927976 
-38.4005 22.1274 -1.11915 -38.2075 22.2858 -1.508 -38.0046 22.5637 -1.8689 
-37.81 22.5499 -2.06526 -36.3419 22.3371 -3.29565 -35.8168 21.7875 -3.69481 
-35.2438 21.1571 -4.10932 -34.5093 21.7692 -4.69465 -34.2145 21.6738 -4.85789 
-34.0465 21.6113 -4.93495 -33.7298 21.7824 -5.11834 -32.8114 22.0716 -5.51979 
-32.406 22.5515 -5.62957 -32.0173 22.3119 -5.68409 -31.8142 22.3407 -5.69049 
-31.6103 22.3429 -5.68926 -31.1992 21.9188 -5.65891 -38.4515 21.1539 0.759307 
-38.4587 20.9498 0.580114 -38.5332 21.35 0.279435 -38.5316 21.83 -0.531117 
-38.4657 21.6796 -0.717436 -38.3246 22.2752 -1.3204 -38.239 22.5532 -1.57516 
-37.7296 22.7372 -2.21154 -37.3966 22.7348 -2.48933 -37.1574 22.7492 -2.68141 
-36.4065 22.6961 -3.28512 -36.1947 22.0929 -3.39656 -35.7971 22.3717 -3.73572 
-35.5685 21.7794 -3.91228 -35.3351 21.7695 -4.1035 -35.1605 21.561 -4.21026 
-34.5126 22.2552 -4.69855 -33.7439 22.2267 -5.1125 -33.033 22.2028 -5.43718 
-32.6019 22.6616 -5.5823 -32.2097 22.5389 -5.66309 -31.4089 22.15 -5.68177 
-31.0105 21.4569 -5.60782 -31.0089 21.15 -5.58874 -38.4099 20.9473 0.911049 
-38.5127 21.335 0.55839 -38.5575 21.5344 0.0359875 -38.5862 21.8056 -0.200019 
-38.4762 22.1194 -0.930279 -38.4266 22.3541 -1.17066 -38.0634 22.7336 -1.88108 
-36.9283 22.7501 -2.87248 -36.0828 22.4728 -3.52072 -35.5538 22.3416 -3.9351 
-35.0174 21.8505 -4.3352 -34.8068 22.2445 -4.4941 -34.1967 22.2226 -4.89104 
-33.9954 22.3248 -4.98303 -33.3667 22.4248 -5.3103 -32.8984 22.7313 -5.49144 
-32.4089 22.75 -5.64085 -31.9378 22.5458 -5.69367 -31.2872 22.3474 -5.67426 
-31.1341 22.14 -5.63917 -31.0184 21.8487 -5.61511 -30.8219 21.1584 -5.51808 
-30.6081 21.4473 -5.43076 -30.6089 21.15 -5.39738 -38.3996 21.1456 1.03234 
-38.3027 20.953 1.27668 -38.4254 21.2557 1.01742 -38.5734 21.6485 0.356563 
-38.6476 22.119 -0.299555 -38.5354 22.0447 -0.714753 -38.4096 22.5461 -1.32098 
-38.3919 22.7845 -1.51546 -37.7095 23.01 -2.36261 -37.3632 22.9243 -2.58329 
-36.9855 22.9284 -2.87288 -36.6841 22.9495 -3.09914 -35.941 22.8566 -3.66975 
-35.335 22.0019 -4.11923 -35.1199 22.3431 -4.27066 -34.5746 22.4913 -4.6615 
-34.2069 22.6667 -4.87857 -33.7554 22.7122 -5.13118 -33.6089 22.35 -5.18109 
-33.344 22.7436 -5.3234 -32.968 22.9635 -5.48832 -32.6054 23.0239 -5.63439 
-32.2134 22.8249 -5.69583 -31.4023 22.6017 -5.71471 -30.7818 21.5499 -5.52504 
-30.4895 21.1536 -5.30436 -38.1973 21.256 1.70315 -38.209 20.95 1.5499 
-38.508 21.6372 0.884806 -38.5348 21.6093 0.684416 -38.6266 21.9163 0.0791072 
-38.6895 22.2059 -0.189989 -38.6407 22.2389 -0.52537 -38.626 22.3589 -0.734664 
-38.5794 22.4268 -0.925643 -38.5704 22.6209 -1.1077 -38.3915 23.0809 -1.73102 
-38.0101 23.0662 -2.11709 -36.2723 22.949 -3.43148 -35.3857 22.4873 -4.08013 
-34.8355 22.6851 -4.50078 -34.0089 22.75 -4.98529 -33.3595 22.9912 -5.32692 
-32.4204 23.0521 -5.69832 -31.9232 22.7339 -5.72313 -31.1938 22.6575 -5.7181 
-30.9447 22.3523 -5.61773 -30.6643 22.1438 -5.50004 -30.7501 21.917 -5.51727 
-30.458 21.3976 -5.31664 -38.1574 20.95 1.67944 -38.3536 21.3606 1.32489 
-38.4427 21.5945 1.1198 -38.627 21.9465 0.388975 -38.5574 22.7722 -1.25869 
-38.6017 23.1642 -1.51049 -38.2146 23.0971 -1.93409 -37.7165 23.34 -2.49014 
-37.5775 23.1355 -2.52262 -37.0932 23.1909 -2.89082 -36.7658 23.1998 -3.11691 
-36.5328 23.1442 -3.26653 -36.1036 23.1402 -3.60372 -35.4331 23.079 -4.09397 
-35.073 22.9376 -4.35176 -34.5686 22.9399 -4.68191 -33.7755 22.9784 -5.13201 
-33.0193 23.1692 -5.51381 -32.4841 23.3545 -5.77015 -32.1985 23.1534 -5.78097 
-32.0037 23.0454 -5.78306 -31.7274 22.95 -5.78455 -31.3238 22.9562 -5.79425 
-31.0089 22.55 -5.67389 -30.6004 21.9119 -5.44753 -30.1884 21.1437 -4.99278 
-38.1285 21.2848 1.88363 -38.3337 21.6551 1.48232 -38.504 21.9529 1.10066 
-38.5871 22.0611 0.879407 -38.6457 22.1418 0.661521 -38.6851 22.1459 0.0789007 
-38.7967 22.6252 -0.51842 -38.7194 22.75 -0.920566 -38.731 23.124 -1.25462 
-38.4588 23.3375 -1.79677 -38.1095 23.3405 -2.1451 -35.7323 23.1427 -3.87433 
-34.1997 23.1511 -4.92275 -33.5586 23.1446 -5.26282 -32.8161 23.3738 -5.67182 
-31.0107 22.8672 -5.74805 -30.7693 22.5476 -5.62038 -30.6149 22.3705 -5.51823 
-30.3962 21.8763 -5.31223 -30.1782 21.4142 -5.04524 -29.9796 21.1477 -4.76656 
-29.9914 20.9505 -4.78994 -29.8062 21.1498 -4.53918 -29.6519 20.9538 -4.32203 
-37.9882 20.9475 2.05299 -38.1879 21.6661 1.86393 -38.6797 22.1854 0.492047 
-38.6856 22.156 0.294038 -38.7764 22.4353 -0.126279 -38.8236 22.6109 -0.31101 
-38.806 22.7689 -0.705552 -38.6302 23.3428 -1.57007 -38.0374 23.5494 -2.27712 
-37.2533 23.369 -2.84585 -37.0005 23.5672 -3.10742 -36.6004 23.3683 -3.3007 
-36.3157 23.3688 -3.51209 -36.0518 23.3542 -3.70014 -35.448 23.3434 -4.14358 
-35.1516 23.1396 -4.32209 -34.6278 23.1444 -4.66428 -33.2721 23.38 -5.47282 
-32.9315 23.735 -5.75803 -32.5368 23.7531 -5.89799 -32.003 23.354 -5.88613 
-31.7963 23.2183 -5.86433 -30.8681 23.4504 -5.8989 -30.7609 22.9231 -5.72847 
-30.4089 22.35 -5.41877 -30.2972 22.1425 -5.29208 -30.1938 21.7084 -5.11212 
-29.9822 21.5627 -4.88235 -29.6343 21.1443 -4.28745 -37.9476 21.3264 2.27204 
-38.3455 22.0698 1.65316 -38.5438 22.1203 1.08161 -38.6537 22.4018 0.963316 
-38.8121 22.6439 0.55568 -38.8658 22.6799 0.0607127 -38.9423 23.0617 -0.518065 
-38.8197 23.093 -1.02785 -38.6106 23.627 -1.72461 -38.4564 23.6458 -1.90681 
-37.8176 23.596 -2.48439 -37.4965 23.6521 -2.75508 -36.7866 23.6453 -3.28992 
-34.4843 23.3256 -4.79999 -33.9534 23.1431 -5.06296 -33.701 23.4939 -5.2932 
-33.1433 23.7087 -5.66591 -32.2078 23.6712 -5.95145 -31.6197 23.6965 -6.02946 
-31.22 23.4299 -5.9305 -30.5834 22.8639 -5.67621 -30.2925 22.7191 -5.5224 
-30.1192 21.9286 -5.11041 -29.8225 21.5846 -4.70783 -29.7914 21.3316 -4.57043 
-29.5402 20.95 -4.12056 -37.7601 20.951 2.48152 -37.9984 21.7079 2.28592 
-38.1357 21.8654 2.05978 -38.9228 22.8934 0.266364 -38.9203 22.862 -0.130394 
-38.9589 23.0461 -0.32383 -38.9035 23.0726 -0.720289 -38.804 23.411 -1.30469 
-38.7176 23.55 -1.52056 -38.2502 23.8753 -2.15201 -37.0711 23.7939 -3.13121 
-36.5503 23.8894 -3.54751 -36.1919 23.605 -3.69648 -35.8159 23.5238 -3.94138 
-35.1312 23.345 -4.37973 -34.8673 23.3451 -4.55273 -33.9902 23.3923 -5.10656 
-33.44 23.6699 -5.50539 -33.3103 23.9438 -5.66907 -32.4995 23.9022 -5.95077 
-32.0081 23.8386 -6.03758 -31.7953 23.8771 -6.07347 -31.3915 23.4153 -5.93698 
-30.8843 23.7306 -5.9695 -30.6224 23.4546 -5.8513 -30.292 22.3847 -5.37476 
-29.9748 22.1601 -5.09956 -29.9703 21.739 -4.92805 -29.6238 21.3465 -4.29648 
-29.5464 21.3203 -4.09812 -37.7681 21.2451 2.57046 -38.1404 22.1971 2.21214 
-38.4906 22.3737 1.46558 -38.794 22.9474 1.02702 -38.9011 22.9601 0.546719 
-38.947 22.95 0.0794338 -39.0274 23.3481 -0.24846 -38.9766 23.35 -0.720565 
-38.9213 23.3569 -0.954248 -38.7837 23.7709 -1.47023 -38.6426 23.9454 -1.73139 
-38.4552 23.9419 -1.95537 -37.8295 23.9926 -2.55466 -37.6166 23.793 -2.69774 
-37.0588 24.0709 -3.21935 -36.8613 24.0416 -3.36719 -35.4225 23.6259 -4.27192 
-34.7955 23.652 -4.71525 -34.2052 23.5937 -5.06101 -33.9448 23.9442 -5.33663 
-32.9048 23.9647 -5.83804 -32.2097 24.0254 -6.05209 -31.6084 23.9723 -6.10483 
-31.3459 23.7847 -6.04744 -30.6084 23.7514 -5.91981 -30.3889 23.0397 -5.67339 
-30.0625 22.8798 -5.48734 -30.0089 22.35 -5.2141 -29.7905 22.1537 -4.98235 
-29.8013 22.0033 -4.90818 -29.6987 21.55 -4.52056 -29.616 21.5187 -4.34886 
-29.4703 21.15 -3.92056 -37.5382 20.9475 2.85512 -37.8104 21.7775 2.65459 
-37.9754 21.9422 2.42804 -38.2931 22.4175 2.00554 -38.6229 22.7482 1.4346 
-38.6993 22.765 1.19164 -38.952 23.15 0.479435 -38.9937 23.1787 0.181003 
[...]
CELL_DATA 7072
FIELD FieldData 1
Area 1 7072 double
0.032976178866 0.069430463546 0.010027237785 0.032420915852 0.049376295446 0.11793748243 0.14088621066 0.053961534803 0.027297306522 
0.051415638052 0.11146204246 0.055334937928 0.097870782092 0.055670333274 0.037463366243 0.064175227925 0.05329258951 0.057348299998 
0.0639502069 0.043741996575 0.10111647023 0.075543081422 0.048023524919 0.053884357695 0.017985250128 0.11635628064 0.066166435704 
0.033163200241 0.09216516915 0.070342856946 0.085459663882 0.041354228993 0.054583145411 0.036338627835 0.054987484266 0.065314710335 
0.032649754058 0.020964653013 0.020294742593 0.090185744154 0.041800774179 0.055085649425 0.034374969024 0.11974693758 0.10366075876 
0.05543770952 0.052718444079 0.059958392153 0.047014503541 0.04270804785 0.084971158695 0.055425830857 0.039945090817 0.10864281714 
0.063776466446 0.067634467066 0.08324208472 0.071419199619 0.071394636372 0.065138654683 0.045673306416 0.035225566246 0.022735458766 
0.045463529747 0.0379058114 0.06839770754 0.028569641618 0.043235378627 0.058187552797 0.15551935641 0.068582932996 0.080253811308 
0.094512848809 0.10133862502 0.039454345836 0.023337683827 0.084818122754 0.059905289153 0.045928802186 0.02300475394 0.028135056254 
0.090909291015 0.095517688104 0.082914026875 0.068650833043 0.075935754286 0.051331636664 0.074360837656 0.067166579183 0.072721688727 
0.078811437729 0.045807899095 0.040924672006 0.02907378177 0.042594484151 0.03332577973 0.051609044506 0.087456016319 0.059830637732 
0.053927655047 0.035964941729 0.033145616531 0.072892240392 0.16233842182 0.07817800249 0.10109019831 0.10139750274 0.036918790059 
0.037173346122 0.073201238046 0.019914676555 0.083202733212 0.048560326214 0.063520116836 0.059437169832 0.035949556292 0.059892565339 
0.09208813118 0.12883201479 0.045810744638 0.069759995674 0.076974822013 0.054658832802 0.059099018382 0.051796835892 0.050192816363 
0.079758324475 0.038511118482 0.024599995825 0.041759485331 0.035325359046 0.043279187553 0.03394624239 0.052275401618 0.053209302777 
0.047084181828 0.038587045504 0.046050273234 0.061436524797 0.032602764176 0.029967110267 0.030199503469 0.064734299343 0.09108491058 
0.054572403069 0.035749275827 0.027504560873 0.090092053626 0.047216674719 0.11378285863 0.056373338136 0.10215433433 0.083446229854 
0.048006868854 0.027910881508 0.035657811254 0.043074790784 0.103791863 0.10102184135 0.044895301466 0.092890945083 0.083529780025 
0.091867904014 0.087141722083 0.055020466572 0.049651896161 0.02439865061 0.02557146692 0.083317254209 0.037044699859 0.034506478645 
0.036889734053 0.028580844838 0.02066777523 0.030490297962 0.063684521113 0.036173110458 0.051604573745 0.048492741934 0.022205096451 
0.030151390937 0.033602700058 0.027741213523 0.04231909401 0.030070092375 0.031925945276 0.070141297293 0.065680049125 0.02063422547 
0.072468480571 0.092566251346 0.092871358125 0.043230012494 0.054580476632 0.057818002189 0.10351211942 0.089884200551 0.094048786305 
0.051682871309 0.12475985427 0.062083438043 0.11812614136 0.088564477561 0.072010095403 0.099121906395 0.020025664484 0.019785102874 
0.031720891849 0.022627771351 0.021053438377 0.0316679187 0.031115107955 0.036133449895 0.030757809755 0.036513573194 0.037716489026 
0.028111014052 0.034452192989 0.042790035687 0.04384361239 0.059663361019 0.053104571668 0.03507235074 0.04230921955 0.023335951243 
0.023722985158 0.043033093106 0.056160966119 0.041645262611 0.063361601755 0.02956591388 0.027174629185 0.07579722772 0.099779286426 
0.072733549971 0.079123622343 0.074249571537 0.0847996708 0.035162005761 0.04936975225 0.057691789573 0.11025296103 0.042700406513 
0.081897425727 0.075603729615 0.068663248218 0.011259381007 0.059789793667 0.12671643002 0.033771902952 0.03644461912 0.029047843023 
0.039387784704 0.063678667109 0.04178049125 0.028105021782 0.022968222612 0.048104466389 0.046042658666 0.040429284496 0.022628501708 
0.044770597291 0.012591289041 0.015546618985 0.084411133721 0.048067906787 0.059733328393 0.051809884414 0.022515557545 0.04876042926 
0.040942461021 0.036942358604 0.044108049227 0.032325465029 0.038648158447 0.084745924061 0.083552452158 0.059665297042 0.044195696511 
0.043598782379 0.034697260881 0.067414206541 0.061167860061 0.091435880055 0.058551193253 0.045387328902 0.085453696186 0.083891060162 
0.065593610736 0.056747500889 0.049890744696 0.061982299709 0.036940227567 0.055546412456 0.0053885263353 0.05888883522 0.048504887899 
0.07101571822 0.030008824152 0.031155037563 0.028524970982 0.050574531419 0.03004951852 0.036428278044 0.071631733625 0.051301800274 
0.037916901697 0.023608336864 0.021574661589 0.085842442954 0.063295409809 0.043659245647 0.026324126115 0.050594590152 0.046436538282 
0.057164097737 0.017181583396 0.034013602002 0.032852993302 0.036300846823 0.027390850706 0.037959146837 0.056723322453 0.053355762059 
0.052403460833 0.069185875592 0.03676686411 0.065439143376 0.049220927648 0.05241901366 0.050724826046 0.19932437601 0.07476374786 
0.094154723141 0.070314743609 0.094478836742 0.04827554784 0.038637415099 0.1231822027 0.043983239949 0.042215813714 0.031354790552 
0.037916254227 0.043240277399 0.071296130119 0.035741226766 0.034537061114 0.03534695768 0.052298675038 0.029493485132 0.038389976161 
0.043734482651 0.053354352799 0.029781085138 0.068851669191 0.048908769548 0.043479676696 0.043786367088 0.076579510795 0.036719756826 
0.031871224457 0.070926271277 0.045626056631 0.035911423037 0.035817756697 0.033633914346 0.064440928313 0.041853944682 0.036764789066 
0.038694142482 0.075196969018 0.030213392612 0.074282720266 0.054713747652 0.034049316602 0.053345305822 0.066085367098 0.062798352556 
0.12917083749 0.10358035414 0.076451973171 0.10383333939 0.014420106399 0.061297107396 0.048796462972 0.065179537536 0.061037162898 
0.039289155913 0.034181304546 0.040183684973 0.073011604183 0.042087993157 0.030180040488 0.024679136358 0.039054366705 0.019020335528 
0.05971958458 0.053667686035 0.030316102584 0.057096969893 0.069914973984 0.037696428032 0.083523906359 0.051249163959 0.069682005052 
0.049210255303 0.059271040904 0.02350535323 0.023872039889 0.034880401057 0.044424828237 0.045238359767 0.050032523907 0.06788862787 
0.056597583031 0.026795259219 0.06251665954 0.056325989384 0.063968839881 0.061337139454 0.078080365759 0.031337209934 0.063983097323 
0.050246327596 0.050469490176 0.039322812443 0.061934751942 0.051483961562 0.117161064 0.037066868238 0.068906366942 0.054035844788 
0.064858194354 0.056879657746 0.032261077072 0.035776110297 0.05681732927 0.10150608646 0.041073699206 0.047912754635 0.03339729023 
0.026664790775 0.048956091707 0.034604745337 0.072363773327 0.058274552965 0.037024646596 0.065133385981 0.02816219343 0.02916293346 
0.07761309893 0.08315185261 0.085126803628 0.11108588593 0.018499348112 0.042290789715 0.042361435049 0.022859629517 0.060740010831 
0.055108609011 0.028507761587 0.048220429359 0.043898975528 0.043216961549 0.04390536502 0.025929774299 0.04220027105 0.078207451267 
0.066851294713 0.041667860361 0.089095521892 0.049727203802 0.062560253011 0.049475277872 0.041506621307 0.036256734651 0.079392454269 
0.048130525133 0.063645088046 0.04587237746 0.02293935292 0.036818757359 0.077018338723 0.088087762161 0.045054153672 0.088396441715 
0.091797839475 0.055243337953 0.033874008154 0.14350113461 0.086637323227 0.072465819874 0.035591294486 0.060509588523 0.045916483617 
0.045181400295 0.04383185054 0.036872763045 0.042008966951 0.050847819413 0.026372024548 0.028033681251 0.022024257624 0.093030862146 
0.089230940573 0.066718542921 0.050771843878 0.034376363923 0.095133383908 0.078155284177 0.077257711903 0.082813862776 0.04266912032 
0.041304790388 0.044451153426 0.032888981735 0.05097438986 0.036208183201 0.047794670468 0.027900271722 0.036926156343 0.080552280015 
0.055454070915 0.057467500977 0.10130950924 0.046544699906 0.034657925448 0.070421331573 0.097055755289 0.041773206922 0.06847924965 
0.041091399101 0.064474675874 0.043963071355 0.023987708568 0.056494160256 0.067903553744 0.063515882564 0.054677293519 0.030244352916 
0.031722968533 0.02785613174 0.05180084816 0.052370566576 0.060931622894 0.044871572237 0.041697204716 0.051208641725 0.068782914648 
0.054253011554 0.066729132603 0.023559683125 0.016368376511 0.044052737261 0.031695150617 0.026569006195 0.021649983965 0.047022925589 
0.032550507154 0.037141026681 0.054948972388 0.066469799574 0.042589367096 0.091419510806 0.089235231677 0.074450324161 0.12634187069 
0.046743729186 0.02694345884 0.028722419329 0.043078487961 0.030667188396 0.029571973212 0.044857614303 0.05328814316 0.030729368772 
0.028673282825 0.038305690384 0.043498093806 0.11449738501 0.033954936475 0.075760546884 0.065227551933 0.07220062725 0.077990158383 
0.054080035939 0.07069338861 0.058362438584 0.032924442833 0.074798397181 0.074591091442 0.047214490191 0.096748603928 0.044715034516 
0.051797218604 0.051960855241 0.054780195525 0.037567466007 0.073951041991 0.026160446384 0.050751482538 0.032830732178 0.082233276781 
0.040668675416 0.038156470637 0.065254559272 0.044412937582 0.04563941588 0.040654292558 0.039466916647 0.026756575867 0.046295090509 
0.047895298032 0.026727565531 0.028490829537 0.021507227405 0.037365398107 0.065017449655 0.10939349113 0.042331510254 0.062757364367 
0.084215273224 0.094595919266 0.10262291234 0.054357190667 0.080382145925 0.029799655078 0.024932138377 0.034696050865 0.034118654836 
0.026790884378 0.039172558614 0.031745287178 0.034440778595 0.03193443868 0.031190408348 0.048373427623 0.043530409727 0.032393376287 
0.07329843124 0.054828452345 0.048214198523 0.063954342974 0.035958555151 0.073973065938 0.083991027952 0.048347496921 0.062611793345 
0.066731352934 0.052050538147 0.056731936304 0.045540991371 0.068987963554 0.12156384598 0.10273086388 0.048923252306 0.066874036594 
0.048035718828 0.041432611466 0.043381661074 0.036042120842 0.038642853979 0.091793315121 0.027577228562 0.030781643557 0.083662433927 
0.053011352716 0.066527105923 0.077919667224 0.037073480591 0.011305517356 0.049810230107 0.032270526426 0.020033039947 0.020406538041 
0.022929350232 0.017959946117 0.019126007213 0.052028278468 0.023890457151 0.044685800511 0.068396407624 0.064372819881 0.065433407025 
0.050754530961 0.05003939773 0.035019596036 0.049722943411 0.019746953602 0.042556694039 0.035169835378 0.02302587357 0.026434648982 
0.021289516189 0.02371110056 0.020511180957 0.035478842411 0.027613969425 0.021669512371 0.030300879586 0.015137413546 0.038938827985 
0.083824179565 0.075684525466 0.092218662628 0.10572403292 0.063131802377 0.044885677718 0.066916071157 0.052572198219 0.057937343745 
0.10001408606 0.12530422724 0.071840611403 0.048691207192 0.048253586776 0.092882410378 0.078677194391 0.051230092657 0.055869610794 
0.041908603854 0.054132500812 0.06589393518 0.043200269594 0.071615617253 0.0604734737 0.050982565391 0.044242530412 0.028777684147 
0.032272658116 0.020562536062 0.083686645045 0.072236695421 0.066689489631 0.081968270074 0.073315151876 0.017430893369 0.035857567407 
0.024004756927 0.020374111002 0.030269080736 0.022557414279 0.037833241145 0.075910332455 0.019128927695 0.062611425284 0.041110242165 
0.084195712642 0.10029543714 0.046788004474 0.040186768899 0.050072860502 0.026375583192 0.026536395281 0.035904813645 0.033157451041 
0.029289119677 0.020625994656 0.03077221142 0.040841362939 0.038390895699 0.035867305602 0.031389119989 0.021085083945 0.021107523156 
0.016216387763 0.018152118486 0.024868264939 0.024628469785 0.015296098831 0.029247758465 0.031895825027 0.098400131526 0.044787337014 
0.14890779649 0.19486347025 0.055023488496 0.068382085124 0.045902039945 0.052986740522 0.074221310125 0.094074118753 0.082079558596 
0.075676639497 0.05492948674 0.07566756841 0.044105187801 0.043090273892 0.056783448915 0.042101610496 0.076486495629 0.049545097846 
0.066102843124 0.049475925972 0.018127960077 0.057373133889 0.049835412865 0.023187061082 0.019907108204 0.028998409333 0.0130837748 
0.050648013297 0.020956249402 0.081438584854 0.041793763604 0.046378246267 0.032442210949 0.026718842582 0.029215491063 0.042253461121 
0.033234911387 0.022921671122 0.020121908073 0.066669335587 0.069532385512 0.050469659624 0.03509700278 0.059556267019 0.067770311084 
0.036399343398 0.030111331344 0.023910523219 0.03367612603 0.038501720966 0.034475022698 0.030436831441 0.039280963329 0.03622690603 
0.028691439088 0.0090239351168 0.031993084103 0.020881540738 0.020263696441 0.021415918052 0.022965464074 0.022133628622 0.025044778532 
0.024600747181 0.017847801663 0.029078897856 0.055904751476 0.042710666499 0.033840954074 0.11029663375 0.087722977579 0.18163955509 
0.083744899223 0.06244225944 0.06601530405 0.051656579966 0.053827681107 0.061317239865 0.036477534743 0.036780599411 0.022764598944 
0.031517897011 0.097912596019 0.077568256392 0.043171618359 0.034433835612 0.020497016419 0.020511406212 0.019829579612 0.030314723581 
0.011033358402 0.021967924775 0.025189484785 0.014440457597 0.022891150482 0.02270613788 0.043994240958 0.018855627532 0.020817193248 
0.041681330618 0.031991017211 0.051543314964 0.035506785066 0.022868970528 0.036873923712 0.04154671522 0.026817441439 0.021902063495 
0.022369542483 0.02931107287 0.037035829235 0.035053768354 0.063385123005 0.061547965888 0.079638928406 0.041246798582 0.064761954962 
0.033796871795 0.043295689189 0.045497601987 0.02456838357 0.033197706799 0.032893241474 0.031031718652 0.025481115656 0.035511710898 
0.031952675439 0.029985009631 0.038331557632 0.028950031228 0.012122401089 0.025325289979 0.022450139001 0.023610452861 0.027045710035 
0.030598532408 0.026715433132 0.024772568951 0.017719317329 0.023192224306 0.01873481882 0.014999489089 0.032891736209 0.018663100407 
0.031805400239 0.038029904701 0.071122262912 0.044582351888 0.058071634945 0.07511031262 0.043169248021 0.078557192757 0.039247768138 
0.040902824296 0.091764250208 0.075183897407 0.052859033334 0.05040613266 0.054105380302 0.16616748799 0.10585211466 0.050894809717 
0.021140254421 0.022703976852 0.021038753817 0.020725008871 0.020621762105 0.031294986854 0.010081524489 0.030286186928 0.025210243376 
0.025433647651 0.0249214965 0.0098422414832 0.018617133421 0.026139648926 0.022676367442 0.021485011613 0.041260876773 0.053461667004 
0.029294210067 0.031334590169 0.044375395239 0.068503957558 0.030516662477 0.03836687852 0.056036676776 0.024658085285 0.025153147179 
0.017442148492 0.029712055925 0.036304966677 0.068235390189 0.10823287813 0.043936913497 0.056830598715 0.044355494446 0.033788409856 
0.058565545622 0.07770756052 0.024277885468 0.020903038214 0.040652623281 0.044322691818 0.040286189951 0.031108112291 0.042557411953 
0.044355635994 0.035482079153 0.023344488347 0.033470443323 0.02223492184 0.048719805529 0.031507398161 0.029934572685 0.02703063349 
0.030005336909 0.030063500612 0.028073005358 0.02783941768 0.016020282976 0.016885457758 0.021578918371 0.022173488402 0.024868813524 
0.020462558465 0.025828217426 0.020589932278 0.03044111087 0.035469128099 0.03970943017 0.020622701977 0.099464400593 0.038142132228 
0.075953759201 0.041129279255 0.062763590769 0.038032169495 0.0253103722 0.043863398364 0.049128834186 0.043133608742 0.059546553507 
0.096105859982 0.056103957616 0.069344255662 0.13694947876 0.093824928401 0.047532421978 0.052723111396 0.020526928302 0.020365470436 
0.020168168246 0.023397348949 0.011735749727 0.016516609884 0.031808398742 0.035123388728 0.02949751257 0.029585778253 0.013507287985 
0.021625669383 0.028134020197 0.020895249448 0.023338221989 0.045932492209 0.039610698368 0.033873120162 0.028185057672 0.094766576903 
0.036524956725 0.033556703769 0.040193436883 0.07297618117 0.019328595764 0.023596934527 0.019315844477 0.021433631941 0.026412236173 
0.032674523792 0.077879515967 0.041284127381 0.041521448536 0.042687369556 0.07798326311 0.045515951007 0.020599540477 0.0082726310034 
0.030040505494 0.013464607007 0.044913137525 0.019643622983 0.02576691544 0.060497834481 0.061765171637 0.040257387286 0.045863949444 
0.025829372057 0.018104846642 0.039986078608 0.028432007828 0.023288251656 0.055924537192 0.034279383091 0.029872226588 0.023832544373 
0.027064522288 0.031587083436 0.027668682152 0.0326944654 0.025004795528 0.027846319517 0.018399217157 0.021119391985 0.026960231929 
0.026252054613 0.017511535083 0.025380713777 0.028157938855 0.030637289434 0.01583766654 0.018875545162 0.045739035386 0.067626374754 
0.037980785977 0.10367146459 0.12817777864 0.044676718643 0.034578813548 0.039919788177 0.054264292626 0.10008065423 0.071885783723 
0.039599686351 0.074095842027 0.037874922345 0.042422659557 0.020381522052 0.02132479181 0.020486079662 0.020071752912 0.017996105789 
0.013575756263 0.010357061724 0.026098705289 0.022458292823 0.032663048177 0.039073634422 0.042120264415 0.018069445358 0.018760420083 
0.034441583545 0.022891367335 0.030750366503 0.02151612574 0.027354795783 0.029329918701 0.022937822667 0.0096966927021 0.03922937469 
0.043723320099 0.061529621619 0.018644615404 0.030083770439 0.035260764923 0.023024091286 0.020406244228 0.021197820418 0.027457836576 
0.023430285139 0.066028754032 0.076391115448 0.042199949843 0.049375532216 0.055307869464 0.042226191967 0.04079976834 0.040092603845 
0.018622841084 0.018040253994 0.021641759266 0.044735324501 0.0065513946015 0.047478103966 0.055692748604 0.034370874836 0.036318403102 
0.0246915634 0.020633719117 0.027478067984 0.028027489912 0.046256517258 0.02905606871 0.032259110527 0.01874761101 0.019242857141 
0.039486786284 0.032353861173 0.024070627824 0.013047856084 0.014622819631 0.030336444604 0.0090141666832 0.026167739888 0.023654528026 
0.014744866688 0.026147254285 0.024156055272 0.014354709244 0.028133236802 0.031129774593 0.029358058363 0.068146889964 0.069188596421 
0.039852776987 0.075068968336 0.084968694644 0.12284657884 0.050986464158 0.040687679932 0.074678943418 0.029324821843 0.012171231996 
0.0099278654957 0.021660594055 0.021268565057 0.010920534448 0.020688865965 0.021950918998 0.0082894995073 0.017654931065 0.0091708061897 
0.015256753966 0.020562413819 0.025975769997 0.029009206257 0.045304884567 0.020903792203 0.016899350792 0.012656223215 0.031134810795 
0.049849937961 0.019631763106 0.021686543086 0.02662114975 0.02561708455 0.028234639506 0.021672209819 0.027115583927 0.029253327043 
0.025513982789 0.045679604361 0.037242973917 0.088623172992 0.047257764686 0.031393414827 0.026728153235 0.036326815277 0.025178037221 
0.019627732539 0.027889318179 0.056364072877 0.02208451185 0.026331509431 0.035380774783 0.031601346512 0.031352692609 0.064540566256 
0.095861558587 0.04289816022 0.072347567108 0.058781323674 0.039792281873 0.03082168376 0.034623131667 0.037122781445 0.026458024464 
0.04274937877 0.045020661175 0.019183687924 0.027993720275 0.04496912466 0.039857572509 0.037121419741 0.032939262816 0.034095295458 
0.029844827954 0.022784699109 0.027460664551 0.026962196661 0.016726311591 0.039647113363 0.025380132403 0.018193365934 0.028594240776 
0.029514121905 0.013827706362 0.034244187125 0.03080502997 0.028614028045 0.0092367331276 0.010647362367 0.031034553953 0.0090011314828 
0.017947796218 0.026819260154 0.009113158456 0.028450963623 0.013290238953 0.024118485924 0.011635672804 0.026525842995 0.0075448058806 
0.008024693103 0.033759784966 0.04583454049 0.085210841715 0.084018927288 0.079486258244 0.10154813922 0.088391884978 0.050072542036 
0.061693938782 0.029193933662 0.0536823728 0.016766552487 0.0049403919982 0.0043815535535 0.0095846397297 0.016814060318 0.022028477332 
0.0096274187709 0.012744179362 0.016416048766 0.016578119765 0.026685756247 0.020528443749 0.029071636048 0.042428148949 0.009937531349 
0.012955059112 0.031583368766 0.03948929915 0.041610203938 0.015278541415 0.029795513618 0.050215585106 0.019929817188 0.025106142686 