# vtk DataFile Version 4.2
vtk output
ASCII
DATASET POLYDATA
POINTS 3504 float
-33.4663 21.2379 -5.26973 -33.6364 21.0668 -5.16454 -33.8302 21.0673 -5.06179 
-33.236 21.0672 -5.37898 -32.8795 21.0579 -5.54902 -33.0364 20.9418 -5.47893 
-38.2151 21.2634 -0.627307 -38.2327 21.4522 -0.413946 -38.1827 21.4658 -0.775278 
-37.8495 21.4612 -1.58038 -37.8364 21.2668 -1.59075 -37.9054 21.2668 -1.47893 
-37.6525 21.4782 -1.9134 -37.4648 21.2672 -2.11401 -37.6429 21.267 -1.8954 
-37.342 21.4475 -2.24538 -37.2909 21.2671 -2.28565 -37.034 21.2742 -2.5264 
-36.8716 21.4602 -2.70429 -36.8456 21.2697 -2.72978 -34.2066 21.2728 -4.84223 
-34.2364 21.0668 -4.82087 -34.4587 21.0671 -4.67891 -34.0364 21.0668 -4.93285 
-34.1333 21.0668 -4.87893 -33.934 21.4374 -5.03082 -33.0738 21.2625 -5.48844 
-38.2866 21.9961 -0.68564 -38.213 21.7962 -0.868442 -38.1 21.4693 -1.09886 
-38.0343 22.0472 -1.42632 -38.034 21.4744 -1.26788 -37.9686 21.8291 -1.49131 
-37.7892 21.2668 -1.67893 -37.4975 21.4631 -2.09096 -37.1343 21.8233 -2.47328 
-36.6454 21.2685 -2.89671 -36.3755 21.4604 -3.11545 -36.4567 21.2185 -3.05535 
-36.2194 21.2646 -3.26036 -34.8131 21.2801 -4.42367 -33.569 21.5351 -5.22906 
-32.8535 21.2816 -5.58933 -38.1914 21.4591 0.790308 -38.2362 21.267 0.484507 
-38.1976 21.2668 0.721068 -38.2358 21.4684 0.516882 -38.2547 21.4887 0.249926 
-38.3345 21.9932 0.188361 -38.2566 21.4672 -0.0712447 -38.3243 21.9081 -0.258886 
-38.3132 21.958 -0.480646 -38.1935 22.0462 -1.05393 -37.8005 21.5365 -1.69176 
-37.6054 21.8686 -2.02895 -37.4102 21.9102 -2.23393 -36.8377 21.759 -2.74642 
-36.6321 21.4669 -2.89422 -36.0172 21.4695 -3.46675 -34.4496 21.5783 -4.69782 
-34.2265 21.4884 -4.84712 -33.8629 21.7971 -5.06812 -33.2281 21.5757 -5.40847 
-33.0435 21.6163 -5.4916 -32.5999 21.0668 -5.66461 -32.2726 21.2545 -5.77911 
-32.2269 21.0716 -5.78278 -32.0364 21.2668 -5.84018 -31.794 21.0653 -5.87468 
-31.817 21.2691 -5.8783 -31.6444 21.0985 -5.88657 -38.0675 21.464 1.21062 
-38.1468 21.2668 0.921065 -38.0358 21.2633 1.24212 -38.3387 22.134 0.524355 
-38.3508 22.003 -0.0916991 -38.3834 22.3543 -0.699771 -38.1421 22.2668 -1.27893 
-37.7938 22.2092 -1.86414 -37.7204 21.8736 -1.88617 -37.1785 22.2138 -2.51417 
-36.9322 22.0638 -2.693 -36.5391 21.6438 -2.98012 -36.0693 22.022 -3.46025 
-35.9994 21.2666 -3.48501 -35.1729 21.6352 -4.1607 -35.0229 21.2672 -4.25502 
-35.2376 21.2738 -4.05589 -34.7038 21.5922 -4.51349 -34.0506 21.7298 -4.95099 
-33.5855 22.1186 -5.24743 -33.2357 22.0063 -5.41678 -32.5338 21.7526 -5.69277 
-32.635 21.3258 -5.661 -31.5713 21.5489 -5.8748 -31.2606 21.2799 -5.87315 
-31.3121 21.0761 -5.87163 -31.0364 21.0668 -5.83971 -31.0364 20.8668 -5.8429 
-30.8364 20.8668 -5.79154 -37.9559 21.4732 1.52859 -37.9368 21.2668 1.52107 
-38.4075 22.2944 0.231902 -38.444 22.3773 -0.278974 -38.4498 22.4445 -0.478479 
-38.3053 22.2668 -0.878931 -38.2507 22.313 -1.07295 -37.9711 22.2709 -1.6007 
-37.6393 22.4565 -2.09266 -37.4174 22.4532 -2.31653 -36.6945 21.939 -2.89434 
-36.2518 21.8111 -3.26492 -35.8105 21.7773 -3.6828 -35.834 21.2665 -3.63568 
-35.4454 21.454 -3.91541 -35.4915 21.2687 -3.86754 -34.8755 21.7983 -4.40107 
-34.5573 21.871 -4.64948 -34.2461 22.0112 -4.86044 -33.8924 22.1881 -5.07102 
-32.8323 22.0647 -5.57376 -32.0413 21.6533 -5.82758 -31.8366 21.6401 -5.85847 
-30.6285 21.0676 -5.7278 -37.7929 21.5853 1.92836 -37.8383 21.2694 1.75589 
-38.0256 21.6681 1.45221 -38.1809 21.9111 1.11854 -38.3148 22.1609 0.715064 
-38.428 22.6156 0.73112 -38.4448 22.3679 -0.0719123 -38.5883 22.8084 -0.457069 
-38.4279 22.6124 -0.916776 -38.2312 22.4869 -1.26703 -38.0994 22.4668 -1.47893 
-37.9995 22.4582 -1.64258 -37.0452 22.6254 -2.68331 -36.8289 22.5676 -2.86329 
-36.5885 22.1903 -3.02511 -36.4451 21.948 -3.11397 -36.1965 22.1584 -3.35721 
-35.8446 22.1308 -3.66065 -35.7922 21.4634 -3.66965 -35.3316 21.8771 -4.07212 
-34.0001 22.5367 -5.03766 -33.1961 22.3799 -5.44807 -32.593 22.1298 -5.68197 
-32.2405 21.7068 -5.77949 -31.8386 22.0026 -5.86158 -31.2336 21.7957 -5.86922 
-31.0141 21.4162 -5.8469 -30.8402 21.4569 -5.81132 -37.7635 21.2657 1.92034 
-37.8813 21.8505 1.82442 -38.2721 22.2521 0.968939 -38.509 22.7511 0.459624 
-38.4935 22.5487 0.135428 -38.5807 22.7439 -0.284009 -38.6194 23.0132 -0.698286 
-38.6198 23.1218 -0.861248 -38.3356 22.7359 -1.2853 -37.838 22.5132 -1.87053 
-37.684 22.6889 -2.12511 -37.4272 22.6375 -2.35241 -36.5756 22.5695 -3.07669 
-36.0526 22.3402 -3.49775 -35.636 21.8045 -3.83116 -35.0923 22.2362 -4.26082 
-34.5745 22.225 -4.65156 -34.413 22.1982 -4.76312 -34.2436 22.4294 -4.87596 
-33.6273 22.5463 -5.23154 -33.4963 22.5417 -5.29361 -32.8553 22.6315 -5.59998 
-32.4719 22.4329 -5.72858 -32.0386 22.0401 -5.83294 -31.4616 21.903 -5.88265 
-30.6433 21.5188 -5.75237 -30.466 21.0665 -5.66386 -30.4521 20.8652 -5.65304 
-37.5637 21.4258 2.31885 -37.6781 21.895 2.24435 -38.0014 21.9884 1.61939 
-38.1549 22.2583 1.35334 -38.3385 22.4612 0.918265 -38.5413 23.0112 0.70996 
-38.5844 22.7571 -0.0870261 -38.7696 23.4664 -0.363344 -38.4106 22.7236 -1.09162 
-38.2394 22.7519 -1.49331 -38.0377 22.6247 -1.68076 -37.8566 22.673 -1.93104 
-37.1291 22.8389 -2.68233 -36.8096 22.8694 -2.94813 -36.3224 22.3205 -3.28124 
-36.3116 22.6949 -3.32886 -35.8337 22.5863 -3.67578 -35.6101 22.0929 -3.86963 
-35.3907 22.1093 -4.04929 -34.8382 22.3838 -4.47794 -34.2584 23.0475 -4.90603 
-33.8413 22.8603 -5.1288 -33.1866 22.6773 -5.45823 -32.6376 22.6554 -5.68467 
-32.28 22.4776 -5.78095 -31.7601 22.2688 -5.8644 -31.5789 22.0553 -5.87179 
-31.2364 22.0668 -5.8621 -30.7333 21.8836 -5.77927 -30.2376 21.0662 -5.47814 
-37.5397 21.2656 2.32492 -37.8498 22.2936 2.0768 -38.2772 22.5877 1.22321 
-38.4618 22.9271 0.951605 -38.6534 23.1616 0.341963 -38.6195 22.9292 0.114993 
-38.7854 23.6539 -0.686191 -38.7586 23.6678 -0.869541 -38.5594 23.2403 -1.19358 
-38.4398 23.0159 -1.29476 -37.6445 22.9118 -2.27304 -37.2694 23.0426 -2.65442 
-35.4215 22.4655 -4.03057 -35.0856 22.4636 -4.28681 -34.619 22.6511 -4.64189 
-34.0311 22.8709 -5.03279 -33.5954 22.8649 -5.27006 -32.785 22.8756 -5.65576 
-32.3317 22.6639 -5.78097 -32.0368 22.4356 -5.83261 -30.956 22.0632 -5.82388 
-30.4393 21.5819 -5.67346 -30.2003 21.3599 -5.49059 -37.3084 21.4347 2.74246 
-37.3021 21.2688 2.7257 -37.0799 21.2551 3.07509 -37.3858 21.8357 2.71788 
-37.4773 22.0753 2.63907 -37.9896 22.3815 1.8361 -38.1918 22.6623 1.53495 
-38.5489 23.2668 0.921065 -38.6153 23.2571 0.657488 -38.7715 23.4532 -0.0703788 
-38.8047 23.6732 -0.362619 -38.6554 23.5369 -1.15691 -38.4231 23.1709 -1.49017 
-38.2262 22.9457 -1.66483 -38.0573 22.948 -1.87739 -37.8595 22.9504 -2.09071 
-37.0466 23.1324 -2.86533 -36.2719 22.8816 -3.38814 -35.4567 22.6824 -4.02024 
-34.89 22.744 -4.45993 -34.5198 23.0884 -4.755 -33.9752 23.078 -5.09189 
-33.1866 22.8763 -5.47107 -31.7454 22.4782 -5.8774 -31.2348 22.3096 -5.87116 
-30.9542 22.2789 -5.84322 -30.6364 22.0668 -5.7609 -30.4423 21.9014 -5.67863 
-29.986 21.0532 -5.22097 -29.6367 21.0676 -4.87852 -29.6539 20.8533 -4.8763 
-37.0845 21.6611 3.12723 -36.8447 21.268 3.40066 -37.7424 22.3739 2.30989 
-38.3138 22.9739 1.41795 -38.4258 23.0256 1.15393 -38.4641 23.2647 1.19947 
-38.6655 23.4672 0.606284 -38.7627 23.4611 0.114954 -38.7848 23.6668 -0.0789351 
-38.7823 23.8668 -0.478929 -38.7834 23.8668 -0.878931 -38.7426 23.8668 -1.07893 
-38.6066 23.5264 -1.30482 -37.8444 23.4124 -2.34522 -37.5991 23.3279 -2.52173 
-37.2179 23.398 -2.86616 -36.6197 23.0674 -3.14786 -35.801 22.8535 -3.74587 
-35.1414 23.0706 -4.31252 -34.9709 23.0509 -4.43872 -34.4438 23.3567 -4.86423 
-34.0503 23.2231 -5.08238 -33.4065 23.0598 -5.40122 -32.8693 23.0586 -5.66011 
-32.4364 22.8668 -5.78036 -31.9134 22.6688 -5.8826 -31.4259 22.4083 -5.88527 
-30.6364 22.2668 -5.794 -30.2364 21.8668 -5.56157 -30.0826 21.6887 -5.43913 
-29.9758 21.4908 -5.30277 -29.6111 21.2739 -4.89141 -29.4664 21.0667 -4.67538 
-36.942 21.6804 3.33581 -37.2222 22.0264 3.01211 -37.4161 22.2527 2.81306 
-37.957 22.9406 2.2249 -38.2062 22.9381 1.69272 -38.5686 23.468 0.936388 
-38.7297 23.4668 0.321066 -38.7547 23.6681 0.14506 -38.7464 23.8668 -0.278932 
-38.7915 23.8668 -0.678934 -38.6091 23.8519 -1.45474 -38.5646 23.592 -1.45566 
-38.3537 23.2668 -1.67893 -38.2293 23.293 -1.87185 -38.0308 23.3843 -2.13851 
-37.0444 23.564 -3.05685 -36.8042 23.3542 -3.12927 -36.2505 23.235 -3.50043 
-35.9693 23.079 -3.67087 -35.4818 23.0572 -4.04364 -34.7167 23.2558 -4.6487 
-33.8166 23.2879 -5.24113 -32.4462 23.0595 -5.82756 -32.173 22.8452 -5.8575 
-31.629 22.7189 -5.93034 -31.4364 22.6668 -5.93794 -30.8939 22.4335 -5.86874 
-30.6491 22.5231 -5.86206 -30.438 22.3248 -5.75789 -30.4067 22.0684 -5.68592 
-30.184 22.0647 -5.5722 -29.6224 21.4638 -4.94866 -29.4507 20.869 -4.64397 
-36.8419 21.6441 3.46163 -37.5598 22.4429 2.66174 -37.8515 22.9488 2.44041 
-38.0578 22.9485 2.021 -38.3484 23.2668 1.52107 -38.4361 23.4677 1.2761 
-38.5715 23.6668 0.721068 -38.6402 23.863 -0.0190863 -38.6364 23.9623 -0.278932 
-38.643 24.0614 -0.625385 -38.7301 24.0668 -0.878931 -38.7396 24.0668 -1.07893 
-38.6949 24.0668 -1.27893 -38.4422 23.5584 -1.68775 -38.0138 23.7153 -2.26922 
-37.6412 23.498 -2.54614 -37.2997 23.6668 -2.88802 -36.5466 23.2514 -3.27359 
-35.6582 23.0653 -3.90035 -35.4135 23.2613 -4.14089 -35.0326 23.2614 -4.43474 
-34.6615 23.4696 -4.76069 -34.3342 23.5892 -5.02986 -34.004 23.7733 -5.30024 
-33.4038 23.3151 -5.48527 -33.016 23.3249 -5.68336 -31.8322 22.9168 -5.95307 
-31.2174 22.7216 -5.95296 -30.0612 21.8496 -5.45386 -29.8401 21.6684 -5.23347 
-29.393 21.4682 -4.71929 -29.4346 21.2532 -4.68164 -29.3151 21.066 -4.43227 
-35.7136 21.2828 4.33235 -35.713 21.0666 4.32344 -35.4364 21.0668 4.43786 
-35.8364 21.0668 4.24413 -36.5805 21.2929 3.71042 -36.8399 22.049 3.54038 
-37.1936 22.1541 3.11629 -37.4277 22.564 2.96817 -37.6799 22.7308 2.63315 
-37.8688 23.2681 2.61701 -38.0282 23.2685 2.29508 -38.1136 23.2632 2.09331 
-38.2265 23.2639 1.84371 -38.4364 23.6016 1.12107 -38.4365 23.6654 0.958094 
-38.6376 23.6674 0.523726 -38.6311 23.8409 0.112235 -38.6284 24.0668 -1.45956 
[...]
CELL_DATA 6886
FIELD FieldData 1
Area 1 6886 double
0.01887885285 0.038925115115 0.023741256471 0.035952216907 0.012776658918 0.029901107492 0.022059046545 0.032007896035 0.026326003364 
0.027174843506 0.011422021888 0.025142056674 0.086731403896 0.041655323299 0.039895450746 0.098827445094 0.055729963175 0.051866183115 
0.066668482528 0.0097280382055 0.027687984266 0.022813857682 0.021170437813 0.10512931139 0.076278441664 0.024806963744 0.0323579856 
0.035632304091 0.076947090177 0.012190175946 0.07008535757 0.067118311468 0.068179149679 0.026906998395 0.023057482676 0.02727736558 
0.082678226098 0.078331630505 0.052057195846 0.041027738842 0.062148357654 0.11767343007 0.040838823373 0.027762638179 0.016179811451 
0.036143992163 0.047131256837 0.050440888064 0.082207731717 0.061970633815 0.030335460393 0.033689119068 0.050131730555 0.1117476128 
0.036958145994 0.070779449092 0.063842001093 0.04261450688 0.03390844081 0.035947759172 0.043969509152 0.015673503757 0.034188046535 
0.019870892688 0.02805059997 0.090137392877 0.090229357782 0.076151167182 0.046552905747 0.055421471624 0.038397797458 0.043156104337 
0.045332196329 0.062024242755 0.10991234842 0.05123697479 0.036230728346 0.06008846564 0.071921065773 0.058275925396 0.059733953561 
0.026643403728 0.030383909964 0.13904323395 0.031929261596 0.053514774587 0.050751791723 0.049993612094 0.028392827206 0.04691974081 
0.037108621406 0.097153134957 0.083029364305 0.035243643934 0.10637375871 0.030550658272 0.048150401932 0.022616114684 0.022731035559 
0.045132393523 0.034478283326 0.027759484856 0.020651588438 0.0306997802 0.034166955503 0.042487661827 0.093237181052 0.049279623665 
0.04374499273 0.041472980269 0.05352906781 0.056677975848 0.03535587914 0.04848926127 0.03163879548 0.040656869228 0.041712560015 
0.044998957193 0.03086208894 0.083314004959 0.090812939515 0.059391711045 0.040978105475 0.046227284804 0.054932129029 0.026523304717 
0.089148813317 0.022703561299 0.029181316541 0.055989373315 0.10427893173 0.046575879218 0.045316712346 0.034170563812 0.054739169736 
0.044097323002 0.068444309707 0.11309382864 0.043683701821 0.10741275542 0.046720984326 0.085117910714 0.047230596926 0.041371231473 
0.048421516855 0.079829328003 0.028539547098 0.042396413902 0.040128619396 0.044808200416 0.033960880073 0.099919585488 0.069526081333 
0.089806824144 0.058133895439 0.039104296282 0.050573116119 0.0423307835 0.03584648114 0.02753809899 0.025922735627 0.037457535811 
0.031251335514 0.077815676833 0.086248427979 0.089449099658 0.091361919581 0.049736939687 0.050232983811 0.048473843207 0.035539128866 
0.055418347181 0.047654512071 0.029983837074 0.040656689605 0.039783863739 0.060960816303 0.061197411981 0.049166387997 0.098995154691 
0.077047357917 0.058039468053 0.075400082872 0.090446693819 0.051460401828 0.069892242651 0.047185470893 0.039994163531 0.048084347659 
0.083765258347 0.041873500205 0.082573148141 0.028989752485 0.065202657797 0.048383210709 0.067802702424 0.093597658075 0.095820431101 
0.045063600403 0.081611558405 0.036874903784 0.040492421267 0.03969728069 0.085697271061 0.067573075562 0.037191723837 0.027353446322 
0.028252267605 0.018579412747 0.043395859725 0.044965276498 0.037616721939 0.047436058964 0.064326048289 0.08392467592 0.088029540098 
0.041269353315 0.049761301101 0.028608634814 0.045947471934 0.041040292864 0.036113019281 0.074066159284 0.076056147405 0.11301399149 
0.07193799466 0.048726069667 0.085228854814 0.056959391595 0.090069890318 0.079551329225 0.079540983593 0.074885929666 0.033472917935 
0.10565610614 0.039730838839 0.040069036215 0.036576717599 0.072350375015 0.046325564944 0.062085685219 0.030611031834 0.047062062664 
0.017578891551 0.072069475448 0.065288130085 0.049628298276 0.079347562678 0.069581078185 0.030711822806 0.046692888539 0.054885433368 
0.053479926134 0.044389655839 0.040830787703 0.033830723713 0.092348572518 0.058494349647 0.052545977125 0.039614658257 0.045846503827 
0.031064906122 0.038364556314 0.01679297229 0.022425483504 0.035472711956 0.03254488758 0.055281604828 0.045111208787 0.050679144668 
0.067309681762 0.055918478268 0.043796897014 0.063757903506 0.062051691103 0.046167385493 0.04741833887 0.046463706375 0.092278421779 
0.098558466395 0.034588911533 0.04135759344 0.090261162803 0.067131732286 0.03090342302 0.051263927694 0.10729633942 0.061910263474 
0.040362867823 0.077533276007 0.086840502235 0.028369527419 0.022900772822 0.030836343714 0.029552952599 0.035626633656 0.040398674112 
0.039413179085 0.029642846822 0.037274667822 0.097578429719 0.099853978651 0.070133201398 0.084750350505 0.068551336167 0.03765806378 
0.049290599132 0.049853485948 0.070651967112 0.067698735829 0.042473001839 0.074098078179 0.062160862391 0.10846296455 0.046071460482 
0.087980726923 0.031071018188 0.03428845071 0.037006569064 0.026841524734 0.021664899503 0.044017409617 0.060558693661 0.04667915593 
0.07215601305 0.065980138244 0.0305225138 0.088086114757 0.12495124688 0.063230719452 0.040571795515 0.067424351669 0.036501590575 
0.063959599362 0.025421021967 0.13733376686 0.040935597556 0.035402400123 0.045133634237 0.023247547807 0.063531385931 0.053873033916 
0.027664803189 0.036415286022 0.019695458132 0.049198042585 0.055219227721 0.032530863685 0.026869566809 0.091694203678 0.079005631888 
0.042872977646 0.055732551971 0.043516905189 0.034543264156 0.03876510489 0.039935295046 0.12792422488 0.11030124263 0.064822262475 
0.088780707318 0.06072349663 0.075046518439 0.042000041196 0.043443383088 0.063751447356 0.071457561826 0.10570590371 0.033968547434 
0.061489655758 0.083783399404 0.055519697401 0.04242093961 0.04829544283 0.038976672181 0.050709453092 0.037806234806 0.036048505407 
0.091225981188 0.03866348298 0.061053783407 0.06487059709 0.059248058723 0.057119929585 0.050814133568 0.048202675512 0.054289640201 
0.056371126315 0.089597710696 0.06929659292 0.034027480266 0.02262441853 0.031563366651 0.045381194722 0.03603897458 0.054181016052 
0.036051832961 0.022133873306 0.03055080241 0.05980660656 0.041616595823 0.030648042046 0.029649570934 0.049244138704 0.079383158016 
0.053324330636 0.052436823057 0.081554566516 0.08585585362 0.10031074631 0.064064694769 0.056502017232 0.022678350041 0.096410007737 
0.057605705514 0.051943528383 0.050549877288 0.034689030583 0.036818696542 0.06298647013 0.051133687202 0.03128735956 0.029819757945 
0.032607437246 0.01855078297 0.04460094195 0.023589767729 0.033583360854 0.044542851686 0.04756604209 0.043314545483 0.073361744717 
0.10512368491 0.050022130702 0.06150041879 0.068160297927 0.080682969137 0.065240687068 0.053212326312 0.12869443158 0.083421570438 
0.046677869347 0.11813210977 0.043801686553 0.026230632404 0.065686106258 0.043802164159 0.041331893494 0.03766681327 0.050052532124 
0.031943966053 0.034044081689 0.030142421278 0.034257341109 0.034823099821 0.033010298478 0.027419334963 0.037751003098 0.0635633121 
0.067876378968 0.050837723364 0.028474872127 0.053425102505 0.10156582969 0.073924555459 0.051765198273 0.065413972732 0.1560584292 
0.071080330276 0.044505438365 0.061752217671 0.023280360129 0.029489922872 0.027473206784 0.036622564008 0.045772540364 0.032821206901 
0.019090006316 0.024176137785 0.028783785266 0.020137982161 0.021325424307 0.021317708943 0.020482264672 0.065975506794 0.02637922544 
0.02032806407 0.068304937353 0.036498588975 0.050234721588 0.067265924292 0.065419890149 0.075737873127 0.090710988456 0.047897034759 
0.071627800161 0.084314430245 0.065379493846 0.082443885289 0.08163615979 0.031968654292 0.050782008503 0.040818929644 0.05871438977 
0.023222697971 0.072123697835 0.055422299378 0.042429522473 0.036785483845 0.027040074655 0.039399844202 0.031978128617 0.043357053142 
0.024699834915 0.02310531973 0.042395391773 0.020625961918 0.020254477955 0.024502194838 0.048608140041 0.040465464162 0.10999231865 
0.053386056773 0.027606281348 0.030807844184 0.031283211277 0.048199996835 0.045740407076 0.046102915875 0.07116930369 0.067014874205 
0.10441660857 0.045892860412 0.04533060498 0.04176005793 0.037033168871 0.035695088799 0.029529487505 0.021516251347 0.026897809393 
0.031840404557 0.014668340715 0.024345315238 0.020714324508 0.020415082037 0.04163089962 0.021082633824 0.055540217612 0.031871825308 
0.03986192863 0.066427560697 0.045769666039 0.02582382338 0.073010527418 0.039576719659 0.067164904644 0.03553356678 0.036881682197 
0.065906247392 0.043050093055 0.025159118231 0.044133690135 0.022103724492 0.040445730433 0.032947800007 0.067604012951 0.075871277652 
0.062958982058 0.079319806043 0.06304698923 0.027301760813 0.041249265183 0.034453650531 0.025256972229 0.045512403482 0.070760412848 
0.016649824193 0.027411507119 0.031817279003 0.021115862441 0.02103031309 0.016811057988 0.030272599689 0.047876788787 0.03135480969 
0.026010827062 0.028298940824 0.032387326388 0.015873183495 0.076340610921 0.033929471371 0.046028457582 0.029950194532 0.045435115292 
0.062733601921 0.081977899913 0.039316743723 0.038942220717 0.058319160732 0.057741461715 0.034612191818 0.02644576901 0.0304842218 
0.021521911096 0.040925995456 0.01391713876 0.019649366648 0.036914115246 0.031087840818 0.020720677666 0.020496922242 0.020767622228 
0.0335093804 0.045920033439 0.03520527387 0.070270157384 0.051403529213 0.033133686691 0.032886835239 0.043858392128 0.04901289479 
0.048004545032 0.054820659299 0.071617502836 0.044412879736 0.046135040882 0.0223953495 0.018300778847 0.0464779979 0.046562026121 
0.047337882895 0.040471158933 0.061394824174 0.10643924667 0.11940758232 0.065452606611 0.061595071856 0.04359060466 0.054369017618 
0.050775773165 0.04652275023 0.028451205714 0.032090295656 0.062849310768 0.044774362293 0.056675039485 0.030354336479 0.028193717463 
0.043601496152 0.02675685214 0.026179241555 0.029233431463 0.035770065685 0.030455195643 0.027046701513 0.019645825509 0.033350832213 
0.035625104421 0.089312229469 0.016921850633 0.021347751065 0.0086630342701 0.045223667214 0.11862868581 0.054793114302 0.073962926341 
0.065111415286 0.069667534164 0.071802942389 0.055373290158 0.045523630053 0.043355747642 0.061320446856 0.035458655797 0.046014535521 
0.034714451315 0.02707832098 0.023227031926 0.020377963623 0.035504184275 0.025314128543 0.023079489048 0.021558668557 0.013914353507 
0.028036108393 0.039244173442 0.017987092068 0.01372155805 0.0242488744 0.019547974753 0.027153982724 0.031853782724 0.05789884901 
0.073428790572 0.054645448379 0.044357112599 0.062568405575 0.090635263928 0.066950467104 0.042600834879 0.041988822322 0.14169984862 
0.050290984875 0.050151422061 0.018008603845 0.049198899797 0.048964839109 0.064862422752 0.076257669446 0.085525601193 0.083647738476 
0.040625563648 0.046079642599 0.074982172904 0.044228696649 0.04514412321 0.052049766505 0.045029678601 0.065710634532 0.070061871371 
0.042184210264 0.03929711134 0.047402899543 0.034131784791 0.049828539437 0.05967575428 0.040374949094 0.018051667077 0.036683980649 
0.031925841758 0.02716056394 0.025166391642 0.034196542407 0.043301432843 0.021895176636 0.088274416065 0.04284977483 0.024691165337 
0.0750351518 0.029156611292 0.035015377474 0.03751497994 0.09951276312 0.056409940489 0.045448575188 0.063343456118 0.035722678866 
0.022829727071 0.027364982939 0.026933382068 0.036738937866 0.018857909871 0.047857521392 0.028357251927 0.024373565756 0.03757101212 
0.035421449011 0.018096644555 0.049851838006 0.034508065214 0.025396593213 0.018026983888 0.02212750043 0.024849861212 0.0445304868 
0.037813436125 0.061591291825 0.052527861486 0.05583728222 0.048161108457 0.075413356436 0.069956566747 0.034866877722 0.026244778247 
0.072890817018 0.040841605258 0.035602029787 0.047678752122 0.046287265989 0.065299817526 0.071575877388 0.07820799838 0.05062692784 
0.065569195305 0.045239630888 0.066193600822 0.043828646549 0.060208289947 0.058879041521 0.035506485386 0.05179139078 0.051852955839 
0.047960524094 0.067547423338 0.083345017082 0.069763444938 0.034876326199 0.033439586478 0.043823193817 0.046233188825 0.063271938625 
0.032837358379 0.027584294662 0.020650976712 0.023126276215 0.033517808728 0.033633320466 0.02950981723 0.021965825428 0.074827128373 
0.037585098886 0.039386043353 0.044178628121 0.060910089187 0.10550500925 0.058373441269 0.052564076179 0.038107841814 0.047622487994 
0.11196327973 0.063889344574 0.053297517883 0.027052433279 0.012891819858 0.048333369264 0.017697146671 0.019649008469 0.035813971094 
0.03268843185 0.025168847914 0.042676977238 0.021181217154 0.0043474693209 0.042934238268 0.031513842205 0.017466945177 0.021940275906 
0.025011197983 0.039955160694 0.058762620983 0.035632912169 0.067299213348 0.033435548979 0.035579018513 0.056813570807 0.070104885454 
0.10082420434 0.0679828068 0.10005401522 0.067984451436 0.050991730848 0.060812769276 0.081101473637 0.040361649721 0.064043063385 
0.068657659042 0.063497368867 0.040243494921 0.11900566079 0.046629168308 0.077613083295 0.064447687934 0.0452136465 0.049322023002 
0.061864001859 0.080927094303 0.081486134592 0.081378951103 0.074577090744 0.038444043678 0.078336534064 0.073694499095 0.047943917421 
0.039098833192 0.023338422594 0.03967332309 0.036822893941 0.056930844392 0.036534292745 0.022205033172 0.041085650011 0.023226222883 
0.056942063807 0.037819966235 0.078917891981 0.074468854744 0.054094981527 0.033024459411 0.043934983791 0.099520897741 0.037180351803 
0.05510689299 0.072872317955 0.046658606442 0.080401887049 0.058462355038 0.040535997197 0.028018939444 0.013931863763 0.03418704237 
0.030591236639 0.033294814601 0.037956428297 0.040096147664 0.022572849778 0.035414886613 0.0331936275 0.031541567086 0.048431568126 
0.0069578233875 0.035804486737 0.030790333296 0.023656610342 0.022907484978 0.020224295429 0.027769349383 0.043602086926 0.088106652421 
0.10400975693 0.0345488075 0.046149355428 0.03560930731 0.033985671976 0.064767494631 0.088360770799 0.059254599352 0.069299016867 
0.0960112288 0.069593482621 0.052379187146 0.048022082034 0.055026774708 0.066431946448 0.077143392305 0.051921530655 0.076765542594 
0.034093421491 0.046387812471 0.09054682409 0.075731971622 0.054811473448 0.054656238593 0.10073015615 0.083753814916 0.040552015066 
0.020567062888 0.085165567378 0.042350415162 0.036989085156 0.033876605572 0.067403392282 0.0456192895 0.069694587986 0.032256645228 
0.032468131162 0.045258286564 0.021690804079 0.036183772267 0.038743772165 0.024568657256 0.02283022588 0.093055339437 0.10811059442 
0.03769968527 0.037787669372 0.051836569903 0.049993908146 0.039393174988 0.085496542837 0.032480107159 0.041375052955 0.067994443094 
0.024418473593 0.016256730839 0.044920595099 0.010392734616 0.025355830121 0.034819762132 0.023454895609 0.023013332038 0.023572900264 
0.024590956382 0.015069939489 0.061880237284 0.019999753788 0.015888839815 0.037196126452 0.013390928704 0.011917623767 0.020513769775 
0.033648481775 0.028479914405 0.0079514876092 0.010260756215 0.0099816350965 0.03299179723 0.039370094674 0.03606735759 0.025816533676 
0.033005764877 0.039650404832 0.081716352522 0.11688202701 0.08201924347 0.040804856562 0.064417350723 0.044987203397 0.077282341533 
0.10471784645 0.07049543427 0.040624474599 0.014891169463 0.043926955293 0.070151399145 0.039449334188 0.053342510756 0.048780811297 
0.053806255233 0.066456233413 0.023848579561 0.022467399692 0.062160092755 0.062357673199 0.045595423524 0.026877781155 0.07131290863 
0.057606672574 0.029463154114 0.048471818832 0.028692999506 0.046387265958 0.040219091058 0.036727418414 0.038966095694 0.046677355633 
0.039299533197 0.018463187 0.068505817951 0.035182711666 0.055924225442 0.059013895155 0.070497805386 0.07871684872 0.032015201449 
0.064827349001 0.049667636264 0.066879620111 0.1108132504 0.024821362859 0.061910044818 0.042762682983 0.025785750792 0.031534392151 
0.049536755218 0.0094315036213 0.011423425997 0.016985600412 0.0209733052 0.0074955385412 0.027303445039 0.023365995001 0.021590806942 
0.023998119424 0.0024980063812 0.058680174892 0.041305260209 0.030006580047 0.05270377824 0.025776839887 0.013375349144 0.026402157185 
0.026518566377 0.045279612085 0.020538476651 0.0091654444861 0.022607215703 0.028890423227 0.032520947383 0.074210966958 0.033715486799 
0.044024778851 0.035979013181 0.0321351778 0.1024790941 0.02033468479 0.069618697027 0.038553716124 0.18141897587 0.080172937127 
0.033013070106 0.035911671838 0.014945792269 0.023383406872 0.015822122422 0.026674350511 0.042303669519 0.039761050888 0.039657289952 
0.038411165739 0.026832440159 0.06538059288 0.026224228855 0.025910860714 0.064751100584 0.047833187497 0.028627707525 0.076125677385 
0.026132826347 0.035059039485 0.044366085022 0.03738833096 0.076552881803 0.082434161617 0.053873511856 0.047433393614 0.052846938229 
0.060787132083 0.042979534783 0.070318690517 0.036766076599 0.044514534247 0.041592463563 0.031706541294 0.024266204881 0.040745916181 
0.062888333439 0.050169166476 0.035030704667 0.049484571874 0.053900914785 0.02760696214 0.055185981506 0.046030057791 0.03662279781 
0.047100292498 0.05247502746 0.073160056598 0.027560913454 0.027500669339 0.032709566316 0.022747435193 0.023986506075 0.004684191624 
0.013177487582 0.043426747209 0.020098812341 0.0089217895577 0.013800690484 0.028446562301 0.020524776699 0.043766304153 0.0492750872 
0.051965418466 0.035346712153 0.052785289412 0.02556617903 0.021145338761 0.012964468391 0.013741059278 0.026865436255 0.044021468815 
0.030514894218 0.017438843462 0.021781965062 0.012751648231 0.053937523982 0.023511174174 0.033614464797 0.024202654736 0.048840928248 
0.055212393544 0.049420707508 0.048075886952 0.096435162683 0.071431063503 0.038776364247 0.042118553759 0.022814814035 0.032892717523 
0.013147544938 0.023855609644 0.023536011217 0.0072096545433 0.013044203261 0.02072537966 0.040004285578 0.046848545032 0.028089700772 
0.053920807642 0.062486187749 0.02220727422 0.020465395699 0.026254727993 0.020701593536 0.025462962841 0.021073381039 0.021738172927 
0.040562630942 0.024001371926 0.025677038359 0.021559081149 0.025096779022 0.035623662915 0.045129011938 0.086199819569 0.074317093491 
0.061521603339 0.054042762323 0.046556156471 0.11872257678 0.034906472155 0.034626968862 0.031203712074 0.03215453681 0.049593006938 
0.026072018084 0.032991177215 0.057674289989 0.076825013169 0.073047777336 0.063001326884 0.062759722725 0.033877971833 0.034445029147 
0.04105832692 0.038028715709 0.037982708924 0.079536420156 0.035781095518 0.070106756099 0.041830095194 0.04184154341 0.020761011517 
0.025273214221 0.028241382838 0.016512114041 0.033885487707 0.038441818202 0.023931523989 0.023941814874 0.018746593433 0.032930731609 
0.022096847979 0.049327520752 0.038978426094 0.039637843494 0.036528702182 0.066373157147 0.009624774808 0.013708393943 0.045500857111 
0.035718183035 0.011697879845 0.0099305327673 0.010166315326 0.030240191527 0.022288840491 0.024796261067 0.028785391748 0.029722207799 
0.024785382378 0.029082671342 0.044863475987 0.029234090885 0.097769378255 0.076782771624 0.031405849192 0.01584959667 0.015875364165 
0.010061649072 0.014424682772 0.0053939478095 0.022086667456 0.01772064784 0.02524030462 0.027667371598 0.029327288355 0.026235168726 
0.021233631464 0.047557121575 0.063893935549 0.041919602351 0.045017774092 0.021654567882 0.020523849462 0.020342546312 0.020276444027 
0.022208366427 0.035736224046 0.015388961631 0.01959387854 0.021297075208 0.017742287583 0.025364542772 0.015859302634 0.02222594605 
0.027743065943 0.015461309735 0.040718929161 0.020632167068 0.028144680557 0.023797287459 0.028759226344 0.036304950525 0.069980524026 
0.093761574609 0.046516852288 0.035705244647 0.033929767457 0.058719375915 0.020382711146 0.028213236087 0.13105183323 0.070006127876 
0.11516008291 0.063479329197 0.061521310392 0.058477898911 0.034153483614 0.053048524796 0.036135855141 0.056384589126 0.032679290339 
0.061106950642 0.04315588958 0.043843921071 0.043735629002 0.031854985999 0.021248745956 0.017405743947 0.018086676697 0.016481843073 