# vtk DataFile Version 4.2
vtk output
ASCII
DATASET POLYDATA
POINTS 3572 float
-29.8387 21.5559 -5.2987 -29.5215 21.1897 -4.86507 -29.9951 21.1911 -5.39808 
-30.3734 21.5607 -5.73133 -30.3017 21.1893 -5.66671 -30.5671 21.1886 -5.78784 
-30.1915 21.6204 -5.6306 -30.1701 21.1951 -5.56548 -29.9671 21.5867 -5.43854 
-29.5924 21.3783 -4.98379 -29.3889 21.7819 -4.88092 -29.3636 21.186 -4.68388 
-29.1768 21.5784 -4.53696 -29.1884 21.1871 -4.43381 -28.9801 21.4253 -4.16519 
-29.0773 21.1886 -4.23849 -30.5628 21.5072 -5.80706 -29.9237 21.937 -5.43847 
-29.5376 21.7262 -5.02964 -29.1578 21.847 -4.60105 -28.9681 21.1919 -4.03523 
-28.9671 21.0891 -4.03849 -28.8908 21.1886 -3.83848 -30.7509 21.504 -5.85914 
-30.873 21.1908 -5.87817 -30.5539 22.1917 -5.80757 -30.3738 22.3567 -5.74251 
-29.7396 21.7902 -5.23835 -29.3409 21.9951 -4.91831 -29.0574 21.7834 -4.42325 
-28.8902 21.6001 -4.06074 -28.843 21.3886 -3.83848 -28.8249 21.1886 -3.63848 
-28.7673 21.3928 -3.66002 -28.7636 21.1877 -3.45908 -28.1335 21.3935 -2.29587 
-28.0796 21.1886 -2.03849 -28.2052 21.1919 -2.28918 -27.9532 21.3813 -1.92416 
-27.9772 21.1993 -1.80412 -27.8645 21.1855 -1.4901 -27.8498 20.9878 -1.43904 
-27.8001 21.1886 -1.23849 -27.7892 20.9886 -1.23849 -30.9702 21.4 -5.90083 
-30.7029 22.028 -5.85111 -30.1757 21.9855 -5.63401 -29.7411 22 -5.28534 
-29.5228 21.9787 -5.08882 -29.1628 21.9869 -4.70119 -28.9688 21.986 -4.48541 
-28.5732 21.3897 -3.26401 -28.6216 21.188 -3.16891 -28.4339 21.419 -2.98056 
-28.3679 21.1888 -2.63686 -28.2795 21.3886 -2.63848 -27.8346 21.3886 -1.63849 
-27.7652 21.1879 -0.944776 -31.1919 21.1862 -5.93043 -31.1008 21.7265 -5.91221 
-30.6413 22.3891 -5.82793 -30.1682 22.2131 -5.63856 -29.9671 22.1886 -5.51003 
-29.8283 22.1882 -5.41406 -29.1679 22.1901 -4.87936 -28.9718 21.7856 -4.30154 
-28.7669 21.5831 -3.84774 -28.62 21.5702 -3.57487 -28.1503 21.5893 -2.58346 
-27.9671 21.4714 -2.03849 -27.7662 21.6003 -1.80608 -27.7704 21.3926 -1.36131 
-30.9675 22.3197 -5.89292 -30.3671 22.5886 -5.77449 -30.0616 22.3819 -5.61108 
-29.5732 22.2077 -5.23302 -29.3646 22.1724 -5.04513 -28.9675 22.1963 -4.69793 
-28.7697 21.9867 -4.27513 -28.7548 21.7971 -4.02724 -28.4521 21.5886 -3.23849 
-28.3582 21.5843 -3.00124 -27.9025 21.58 -2.06704 -27.729 21.562 -1.59481 
-27.7216 21.3886 -1.03849 -27.6815 21.3886 -0.838485 -27.7278 21.1758 -0.558082 
-27.7145 21.1906 -0.421002 -27.7339 20.986 -0.255044 -31.3671 21.5886 -5.93031 
-31.3814 21.1901 -5.94093 -31.1691 22.1412 -5.91893 -30.6199 22.6279 -5.83576 
-30.032 22.593 -5.65832 -29.5671 22.3886 -5.31277 -29.1671 22.3879 -5.03885 
-28.763 22.5305 -4.83632 -28.6006 22.1495 -4.28403 -28.5869 21.796 -3.80281 
-28.3637 21.7967 -3.37706 -28.1762 21.7845 -2.95332 -27.9708 21.7878 -2.57237 
-27.7174 21.7683 -2.03393 -27.6118 21.8229 -1.84241 -27.6695 21.6138 -1.44284 
-27.6396 21.5996 -1.08368 -27.5917 21.6162 -0.834697 -27.5463 21.6827 -0.64409 
-27.708 21.23 -0.240347 -27.7581 21.1469 -0.0362263 -27.8001 21.23 0.180071 
-27.8321 20.9886 0.161511 -31.5716 21.674 -5.9217 -31.5671 21.1886 -5.93372 
-31.3636 22.0155 -5.92526 -31.1668 22.5887 -5.90535 -30.9671 22.5886 -5.89088 
-30.3812 22.8538 -5.85229 -30.1671 22.7886 -5.77105 -29.6526 22.5704 -5.45305 
-29.7666 22.3875 -5.43883 -29.3922 22.3902 -5.20603 -28.2955 22.58 -4.46103 
-28.3915 22.4138 -4.38169 -28.3717 22.1476 -4.00027 -28.4528 21.8451 -3.64863 
-27.789 21.7924 -2.24784 -27.3157 22.1768 -1.52498 -27.5483 21.6799 -0.441461 
-27.5605 21.6947 -0.239413 -27.6981 21.3886 -0.0384856 -27.8757 21.209 0.366952 
-27.9559 20.9932 0.429004 -31.7689 21.2007 -5.90984 -31.4241 22.5677 -5.90407 
-30.7128 22.7903 -5.88373 -29.8293 22.7993 -5.64646 -29.2484 22.5517 -5.21882 
-28.9612 22.5805 -5.03968 -28.5666 22.7819 -4.86098 -28.3069 22.3683 -4.23536 
-28.1253 21.9778 -3.2601 -27.9412 21.9993 -2.92818 -27.7458 21.9923 -2.52682 
-27.5966 21.9921 -2.18912 -27.394 22.1894 -1.98278 -27.4883 21.824 -0.882529 
-27.3246 22.1301 -0.457028 -27.5975 21.7034 -0.0207587 -27.6924 21.5886 0.161511 
-27.7382 21.7123 0.367071 -27.96 21.32 0.564618 -28.0427 20.9859 0.568175 
-31.7676 22.1027 -5.89013 -31.9685 21.2012 -5.87352 -31.5744 22.3001 -5.90449 
-31.4823 22.7905 -5.90895 -31.0895 22.7862 -5.91352 -30.3671 23.1886 -5.95053 
-30.024 23.0096 -5.81776 -29.5671 22.7886 -5.51568 -28.7659 22.7876 -5.03958 
-28.3604 22.7786 -4.67626 -28.2175 22.209 -3.83383 -28.1134 22.2298 -3.66027 
-27.2088 22.4458 -1.85829 -27.3179 22.1335 -1.23205 -27.3846 22.0143 -0.995857 
-27.305 22.1389 -0.634017 -27.3303 22.176 -0.25732 -27.4705 21.9886 -0.0384856 
-27.8837 21.5886 0.561513 -28.2171 21.1748 0.859606 -36.5314 21.456 -3.01109 
-36.261 21.1868 -3.22503 -36.5258 21.1888 -2.99318 -36.239 21.5163 -3.27602 
-35.9889 21.1921 -3.43826 -32.3256 21.1888 -5.74487 -32.1412 21.1842 -5.82389 
-32.1671 21.0474 -5.83848 -32.1314 21.6531 -5.82736 -32.076 22.2165 -5.83667 
-31.7747 22.5001 -5.88939 -30.8833 22.9875 -5.94381 -30.7561 23.1942 -5.99566 
-30.1671 23.1886 -5.91514 -29.7671 22.9886 -5.70605 -29.5633 23.0095 -5.63159 
-29.3229 22.8048 -5.4144 -28.9699 22.8132 -5.21335 -28.7563 22.991 -5.0825 
-28.5353 22.9896 -4.84643 -28.146 22.7811 -4.46214 -28.1393 22.5574 -4.25031 
-28.0034 22.1819 -3.38612 -27.7565 22.2772 -3.06374 -27.5558 22.3244 -2.70016 
-27.3796 22.3967 -2.37896 -27.1591 22.3905 -1.49533 -27.1403 22.3742 -1.24034 
-27.1566 22.3812 -0.568647 -27.1514 22.5387 -0.162138 -27.5602 21.9504 0.173871 
-27.7882 21.9026 0.598172 -28.0151 21.5263 0.735107 -28.318 20.9878 0.965284 
-36.7826 21.1881 -2.73664 -36.0643 21.6287 -3.42037 -33.4221 21.4779 -5.27128 
-33.1671 21.1886 -5.38611 -33.4563 21.1895 -5.25904 -32.7639 21.5751 -5.55509 
-32.7348 21.1935 -5.58746 -33.0307 21.2002 -5.43755 -32.6095 21.6517 -5.62647 
-31.7671 22.7886 -5.88225 -31.2892 23.0164 -5.95299 -30.5671 23.3886 -5.98554 
-30.3671 23.3886 -5.91415 -29.9507 23.1817 -5.85514 -29.3671 22.9886 -5.5203 
-28.3347 22.9884 -4.63921 -27.9656 22.5861 -3.9434 -27.7505 22.549 -3.48862 
-27.199 22.5984 -2.13629 -27.0441 22.5872 -1.47588 -27.1278 22.3814 -0.948862 
-27.2841 22.3668 -0.041853 -27.3953 22.3021 0.187471 -27.5656 22.1178 0.370812 
-28.0486 21.7547 0.920762 -28.179 21.4348 0.912805 -28.4092 21.1909 1.13163 
-37.0147 21.4202 -2.53782 -37.1634 21.1971 -2.39178 -36.3674 21.9358 -3.17986 
-35.7249 21.4844 -3.6632 -35.7578 21.1868 -3.62701 -33.5991 21.5324 -5.17938 
-33.5671 21.1886 -5.18717 -33.9364 21.1939 -4.93841 -32.9822 21.6875 -5.45141 
-32.3233 21.6163 -5.75313 -32.4264 22.0868 -5.72785 -32.0566 22.7414 -5.83481 
-31.7757 23.0213 -5.90111 -31.5706 23.0378 -5.93381 -30.9722 23.3883 -6.05728 
-30.7943 23.3905 -6.03937 -30.2094 23.3892 -5.84428 -29.9671 23.3235 -5.83848 
-29.7671 23.1886 -5.77726 -29.5602 23.1922 -5.65205 -29.1922 22.9866 -5.41981 
-28.942 22.9886 -5.24179 -28.5671 23.0676 -4.83848 -28.3671 23.0432 -4.63848 
-28.1664 22.9891 -4.43829 -27.9948 22.7902 -4.23342 -27.9671 22.6486 -4.03849 
-27.7816 22.6059 -3.62611 -27.5643 22.5771 -3.12944 -27.3517 22.5795 -2.59932 
-27.0141 22.5886 -1.23849 -27.0474 22.5891 -0.552057 -27.1247 22.7625 0.16564 
-27.5903 22.3742 0.661529 -27.9183 22.018 0.914032 -28.4442 20.9886 1.16151 
-37.1749 21.722 -2.42257 -37.3593 21.207 -2.1997 -36.7373 21.6582 -2.8217 
-36.5771 22.0332 -3.01039 -36.0644 22.0149 -3.41582 -35.9339 21.7246 -3.51879 
-35.5502 21.3972 -3.81273 -35.3022 21.434 -3.99352 -35.3671 21.1886 -3.97744 
-35.2394 21.2053 -4.0507 -34.1004 21.3977 -4.84606 -33.5625 21.8556 -5.22116 
-33.1773 21.6548 -5.3785 -32.363 22.4403 -5.75586 -31.4556 23.3751 -6.03848 
-31.1601 23.396 -6.06023 -30.9481 23.591 -6.04325 -30.5671 23.4883 -5.83848 
-29.3671 23.1886 -5.5091 -29.2909 23.1886 -5.43848 -28.9671 23.1014 -5.23849 
-28.7671 23.1102 -5.03849 -28.0442 22.9886 -4.23849 -27.9013 22.7886 -4.03849 
-27.7468 22.7874 -3.74399 -27.581 22.7893 -3.38075 -27.4369 22.5886 -2.83848 
-27.2457 22.7886 -2.43849 -27.0666 22.7886 -1.83848 -27.0091 22.5905 -0.982159 
-27.0116 22.7886 -0.238486 -27.0538 22.7886 -0.0384856 -27.3408 22.5302 0.345457 
-28.147 21.9174 1.1575 -28.3701 21.4339 1.17214 -28.5889 20.9895 1.3553 
-37.3602 21.6468 -2.2293 -37.5066 21.2111 -2.02125 -36.9291 21.8735 -2.66536 
-36.3478 22.3995 -3.2235 -36.0221 22.3629 -3.47042 -35.5579 21.5953 -3.79906 
-35.3423 21.6304 -3.95981 -34.8199 21.3669 -4.34712 -34.4719 21.4258 -4.61165 
-34.4106 21.1888 -4.64595 -34.6442 21.1926 -4.4618 -34.167 21.1892 -4.808 
-33.8741 21.757 -5.01788 -33.3649 22.1982 -5.3281 -32.9749 21.9723 -5.47043 
-32.6968 22.1375 -5.6212 -32.7062 22.3826 -5.6293 -32.3683 22.925 -5.75546 
-32.1413 22.9925 -5.82521 -31.7707 23.587 -6.04968 -30.3296 23.4356 -5.63827 
-29.9671 23.3886 -5.74387 -29.5671 23.2416 -5.63848 -29.1205 23.199 -5.28239 
-28.6117 23.1913 -4.675 -28.3681 23.1617 -4.43307 -28.1671 23.1102 -4.23849 
-27.9667 22.9941 -4.07081 -27.534 22.779 -3.26725 -27.4419 22.7886 -3.03849 
-27.3259 22.7876 -2.6742 -27.1392 22.7905 -2.12237 -27.0302 22.7886 -1.63849 
-26.9794 22.7854 -1.19205 -26.9815 22.7886 -0.638488 -26.9893 22.7886 -0.438487 
-27.0425 22.9886 0.161511 -27.3562 22.6623 0.531329 -27.8381 22.388 1.08763 
-27.9715 22.2274 1.16174 -28.7241 21.3734 1.57741 -28.7097 21.1821 1.51619 
-28.5671 20.836 1.36152 -37.7861 21.5711 -1.62205 -37.626 21.1933 -1.85301 
-37.75 21.192 -1.64337 -37.6553 21.6562 -1.83924 -37.539 21.7317 -2.02416 
-37.3662 22.0097 -2.24104 -37.1745 22.2424 -2.46526 -36.7601 22.1014 -2.84946 
-36.6568 22.4772 -2.9608 -35.8032 22.1027 -3.63162 -35.4677 21.9947 -3.88681 
-35.2419 21.6359 -4.04449 -35.0002 21.6111 -4.23737 -34.768 21.1895 -4.36959 
-34.1508 21.8228 -4.85244 -33.7909 22.0637 -5.08546 -33.5388 22.3686 -5.24162 
-33.1961 22.0993 -5.3987 -32.7433 22.6606 -5.61488 -32.7078 22.9738 -5.63524 
-31.9643 23.2367 -5.90395 -31.5671 23.5886 -6.07888 -31.3671 23.5886 -6.09339 
-31.1671 23.5886 -6.08928 -30.8134 23.5859 -5.83657 -30.5671 23.4822 -5.63848 
-29.7671 23.3624 -5.63848 -29.5671 23.3354 -5.43848 -29.3671 23.2514 -5.43848 
[...]
CELL_DATA 7033
FIELD FieldData 1
Area 1 7033 double
0.13147404386 0.054375153374 0.03560209867 0.051520729402 0.037679072359 0.025802060461 0.072531626801 0.060697986068 0.027063307125 
0.032657705148 0.041469028141 0.058795653267 0.03384710977 0.071074812555 0.048223059264 0.11529426497 0.039420760422 0.076853929499 
0.027749672246 0.011860514778 0.010874501738 0.050164453066 0.031142059107 0.069620686708 0.082917807888 0.052452160057 0.040336359789 
0.037866514194 0.037217571738 0.040222638461 0.026447564866 0.047541860694 0.024753914575 0.021594911015 0.020213894012 0.029831588641 
0.025446492764 0.03261029785 0.020983945262 0.028539022894 0.051037304307 0.052448342576 0.076545858881 0.043576182207 0.058525851813 
0.026336258308 0.036455615377 0.023153916756 0.021050026022 0.023387363704 0.056566924243 0.034214176714 0.036620592508 0.020665025724 
0.048695019144 0.035388122637 0.072797427442 0.041311914199 0.039606156746 0.042854224763 0.030407054721 0.035478601935 0.025751517868 
0.029622471004 0.034040958332 0.043267124492 0.098135403257 0.022669427893 0.026281571429 0.026575809839 0.038538175129 0.027635346702 
0.030866480061 0.032407496161 0.031883643313 0.022244423343 0.017092913683 0.015047100222 0.025708195978 0.020124136695 0.044532396791 
0.035484922728 0.040987756114 0.041301936816 0.019534623253 0.038616849092 0.030497762708 0.027748981092 0.030823750035 0.050531525068 
0.099118279517 0.057833916053 0.032816379318 0.027360697427 0.027214886961 0.021416424203 0.032017697374 0.033981314451 0.024855097386 
0.025929128993 0.03283807054 0.036847398217 0.034521351139 0.036975352364 0.027956610734 0.031617171391 0.040960359333 0.03400097535 
0.034453000032 0.051180782756 0.063124510187 0.019606773731 0.0072652275027 0.034444360865 0.02239094502 0.027874867935 0.033888360688 
0.042130469197 0.01549219216 0.037852694267 0.065778651448 0.048279249928 0.039108397278 0.031485633802 0.041520708801 0.036861522781 
0.021810392463 0.016472673176 0.030636504704 0.031540908823 0.030720452156 0.055448321029 0.067205865294 0.030041112035 0.042389060254 
0.034128627723 0.039931227553 0.047913750532 0.02333938599 0.056968590759 0.072820119033 0.034451585224 0.029326823372 0.021815054685 
0.037254941784 0.021393924564 0.034975118681 0.037749291186 0.021871845034 0.026177665672 0.026410520379 0.045116651383 0.041390064663 
0.056712348894 0.044659445046 0.04516008481 0.047244651016 0.035171514563 0.036740955602 0.047149847296 0.035091711813 0.024338708632 
0.019947598855 0.031714094258 0.034259667392 0.06018215314 0.12128905467 0.096646507758 0.033363671573 0.063921650965 0.032451319183 
0.046961879402 0.031349172187 0.058142882486 0.054082394594 0.052851507765 0.029133654572 0.028875927975 0.10314646828 0.054170083074 
0.04385786768 0.023371610857 0.0307606903 0.054943984181 0.052315688287 0.044048120235 0.025555763671 0.028045555402 0.024664223565 
0.032738255926 0.049302997595 0.04383235548 0.057549762335 0.0575839406 0.026918520707 0.031043826336 0.030838985417 0.030129378616 
0.037619170511 0.050137302759 0.033203843392 0.023191439747 0.018661183522 0.026441703342 0.037571177401 0.083719206272 0.063755067948 
0.030401385455 0.082101652028 0.04739014299 0.041016769481 0.058586497803 0.062610459715 0.049681910923 0.030303300698 0.033498468246 
0.10099483379 0.19804315644 0.048428703706 0.030060731062 0.024066812999 0.05090867704 0.052472027687 0.054105986568 0.032629077431 
0.040432387156 0.051826066805 0.028725472661 0.027795420878 0.091502751065 0.089255407794 0.065738671954 0.049684825974 0.029282743039 
0.019817551638 0.037664502854 0.058097185045 0.031219334665 0.042612692659 0.035060049811 0.045026698933 0.035389795957 0.038500115776 
0.039454228448 0.031630069827 0.017315856676 0.053941605208 0.053614437699 0.10926707474 0.053807897987 0.061528000578 0.046378300629 
0.065253827769 0.071215166183 0.04516274108 0.017354940001 0.045880386204 0.05090802203 0.054173617423 0.034570424016 0.032658888952 
0.042177989442 0.057990619996 0.03179463596 0.062492104256 0.047138738703 0.057016357217 0.013961159994 0.042039471483 0.15253026205 
0.061095528668 0.041889309204 0.04106943749 0.038974064415 0.038628136417 0.081619623944 0.035462067225 0.046858818459 0.029092067778 
0.035634120322 0.03082665665 0.065319239699 0.04748661022 0.034196562049 0.027638988248 0.028835674234 0.034350834884 0.031975969411 
0.030757238153 0.061941839829 0.047925186438 0.037176126735 0.050586639024 0.079748775001 0.076054025588 0.075961669574 0.075973488323 
0.049268708626 0.043802411991 0.017858175238 0.092674222208 0.0257851425 0.038890139415 0.057624875168 0.034139811663 0.037234640374 
0.042315061438 0.038787968043 0.028519637709 0.05435148816 0.045640088826 0.048600319186 0.063654550417 0.053558053298 0.045561184879 
0.063207986498 0.10079842074 0.047039207017 0.060318231331 0.061778643992 0.039201149714 0.041271657074 0.045529457796 0.044415998979 
0.031277336564 0.038663390987 0.020633775469 0.020508380424 0.026216490725 0.021834941905 0.026984950616 0.027157597583 0.058692907001 
0.027495058546 0.033657275413 0.030302769418 0.031754407309 0.031648470244 0.081865803647 0.046850590448 0.067864978721 0.073753796452 
0.087658548867 0.092691079747 0.054960535021 0.042344502508 0.033969383474 0.043653689406 0.042145942964 0.054629455369 0.070168424629 
0.035580496789 0.046636833095 0.043602333178 0.045835024712 0.057180164537 0.066318050158 0.031619853497 0.033099709047 0.032498089465 
0.058296841414 0.084262215456 0.087634284705 0.056549417187 0.08618333062 0.044540939091 0.076497959421 0.022735970321 0.029749101994 
0.022741471654 0.0616940998 0.034034932318 0.06700634886 0.043894136928 0.099788601828 0.077605801763 0.042180889866 0.033410069677 
0.034225911883 0.083197669905 0.035974682711 0.023204628012 0.021545115983 0.018692789793 0.016052877216 0.021076806843 0.019987422974 
0.020643494291 0.019739746759 0.039082007162 0.021991548567 0.013429056373 0.0086079959226 0.027555496666 0.034998814658 0.014629360512 
0.083365937407 0.038070879824 0.08979775492 0.074302787168 0.046819211914 0.051973594249 0.056006692899 0.029224193949 0.036262658636 
0.091719028996 0.044852054648 0.047245806938 0.049348122426 0.050454434543 0.04004498197 0.074151341824 0.052676635408 0.037270703314 
0.044342561185 0.023673860338 0.072202529192 0.053396562308 0.073444669167 0.076175610818 0.07426896199 0.031798698012 0.036338921816 
0.036729708621 0.017587010782 0.074126304534 0.033711754745 0.07473657828 0.049930264008 0.018818721699 0.071837109706 0.050358821878 
0.060406115509 0.080305121943 0.034389471054 0.026675151628 0.050746176051 0.037594536539 0.017947568912 0.023557571867 0.018118420424 
0.015573624527 0.024683169757 0.014335839787 0.025342128877 0.024063374383 0.020548295117 0.027588573922 0.014010031066 0.018226175282 
0.011542304316 0.007922518768 0.024601062351 0.027844319855 0.030720943616 0.007666424297 0.037864333256 0.023585334083 0.072715801463 
0.04981888303 0.038762449533 0.050725181278 0.069450591061 0.029683994583 0.030882621032 0.05151582924 0.053127791918 0.031601620275 
0.062341675058 0.042487546307 0.078677735853 0.08966893182 0.042286524065 0.054441685863 0.040146561984 0.024519508135 0.050972498696 
0.058185922551 0.067139819358 0.072281315175 0.077461923909 0.064668190943 0.064256629773 0.031683038402 0.039971555743 0.02213585294 
0.031100138827 0.065622313982 0.035154839386 0.027449900641 0.089203193232 0.057555761421 0.067818154944 0.089720844748 0.029477596241 
0.058970523497 0.068611198775 0.062651333069 0.077483903142 0.048116731815 0.060459448059 0.068165055831 0.056691036102 0.019183790714 
0.018122989742 0.038217996949 0.037935007292 0.014293817391 0.014211902875 0.006246638249 0.0062071149476 0.010398977989 0.02456445862 
0.017540326967 0.01763389306 0.02853599379 0.027905574666 0.029550594801 0.018792277839 0.01880786 0.01646102342 0.037610154922 
0.039739013633 0.01714653639 0.046154523871 0.034961341906 0.026885027483 0.026636513447 0.033174263852 0.029281038049 0.020927187448 
0.02376271828 0.025558217347 0.044796082532 0.021285843635 0.0283818728 0.02541409731 0.048259239669 0.044671788511 0.098329718911 
0.051238269038 0.076371222229 0.067250900272 0.047887754343 0.018741903969 0.046257358514 0.048040147097 0.070128908803 0.048453207876 
0.087782448126 0.055144520195 0.054235028195 0.08646280681 0.095638617362 0.056061662337 0.056494915975 0.10178981396 0.026894802207 
0.013041453165 0.06616549289 0.050149119534 0.01382283158 0.044393102013 0.034698213096 0.046887377574 0.067403086687 0.051845419536 
0.052412563682 0.04027770553 0.051044290189 0.083636997842 0.035508095282 0.051996928734 0.087178266506 0.032689808009 0.043553785574 
0.057711258467 0.02277269309 0.031485397376 0.021780256961 0.028133889668 0.024216213886 0.031578826175 0.024805140313 0.023773844839 
0.024845897226 0.0042285614192 0.0096144047313 0.010742307152 0.018232566378 0.018244506974 0.03327152022 0.033776484626 0.011854691465 
0.026717426119 0.015351627457 0.022696312708 0.033763854809 0.040430738973 0.012949327305 0.027285372128 0.039608369034 0.027344995206 
0.034536461533 0.029561265633 0.022289749202 0.04557197493 0.035226600897 0.020126002961 0.020923481339 0.020198102434 0.020877081065 
0.020681093065 0.021975204227 0.028953700591 0.032506659388 0.066024056703 0.058883264204 0.03618550637 0.042559714511 0.061618021906 
0.11114964605 0.047378655698 0.032313119864 0.021912270322 0.038231223303 0.034585273862 0.039318420498 0.059889758432 0.057520445338 
0.04961433659 0.073138628653 0.12168898596 0.079753443131 0.050975015631 0.10005466354 0.066180620519 0.081756019884 0.089051149829 
0.051554547184 0.024366609051 0.032190405226 0.047529108515 0.037164087228 0.034420055985 0.1038906059 0.063559668366 0.031756854686 
0.071357264478 0.066755097323 0.038446791557 0.049011408522 0.071236207021 0.041186887384 0.029204576676 0.067975975738 0.043179794888 
0.027114529217 0.035271805506 0.056539317944 0.021123331576 0.021943693984 0.019480396445 0.013575907022 0.031117502455 0.026413309311 
0.021904997488 0.023326943311 0.02337081369 0.0068384254093 0.025181797021 0.0099040355263 0.027547948852 0.011361432437 0.011998266251 
0.049977851915 0.028937140067 0.016845306553 0.027266912774 0.03174894546 0.042879421764 0.030338594158 0.023046125242 0.020183817787 
0.025768181479 0.036799386659 0.018328394113 0.035247140495 0.021067276499 0.023346064791 0.027860909952 0.049238084211 0.03729959809 
0.020516840379 0.020089999509 0.020047940081 0.020070138356 0.023124411806 0.021416863926 0.042178487213 0.10016672819 0.052115575895 
0.049654215396 0.058687591651 0.042746904084 0.049783961546 0.088113143795 0.03289145604 0.042500682557 0.023646597242 0.047612496538 
0.058513208301 0.04760928112 0.089767519549 0.056935509969 0.068919812652 0.070582588928 0.10742864172 0.06784951372 0.022416072073 
0.053856816877 0.10192626106 0.060635063892 0.13584142813 0.088914601233 0.09536216229 0.043266319706 0.057838432083 0.072456204418 
0.021025837671 0.071985279826 0.15530441469 0.087853559282 0.073579923018 0.040595820288 0.045149647746 0.058834216412 0.03822493041 
0.036860190571 0.020195042547 0.022635627718 0.016429834729 0.012036452156 0.026860675487 0.02914612659 0.020818010677 0.030887570896 
0.029261214915 0.045535430197 0.013192827463 0.028828836244 0.022488575215 0.032910833973 0.025459716715 0.031040704146 0.030294708464 
0.066916839974 0.024498462861 0.031476911046 0.034532308279 0.0083138591477 0.028449818464 0.0091286061397 0.034736352154 0.021634137264 
0.025883233474 0.025082661636 0.02417520554 0.014069742814 0.082987835776 0.025613151856 0.020614137885 0.02560014633 0.0229441025 
0.021334393185 0.022030923562 0.021240269814 0.067459764503 0.080681044628 0.037433426286 0.074979304601 0.067124395275 0.062618738495 
0.040579544787 0.092504197922 0.029309362562 0.028534288724 0.050655561982 0.018860475122 0.0297354777 0.035631068874 0.10439785066 
0.077017399556 0.056143946242 0.030561518265 0.04148450748 0.043444667528 0.041055687146 0.045645625937 0.072479173102 0.034107344526 
0.055584380083 0.099785889714 0.096732389697 0.063924351559 0.029836224153 0.1237938839 0.035373576124 0.088850968718 0.072820028121 
0.063442046432 0.058312634195 0.055602683498 0.031634123856 0.050272458907 0.07147330421 0.013734270035 0.020490477235 0.022767829943 
0.019473822805 0.015045932715 0.030476781694 0.055319782281 0.05240072593 0.034696166334 0.031574771297 0.032351519772 0.025998931456 
0.031615287127 0.033828879875 0.040577406957 0.054650657382 0.018075536434 0.083984223261 0.016597880379 0.011492942131 0.018713635209 
0.018022092495 0.025846380505 0.0096615672508 0.029892893061 0.022660790616 0.024819514059 0.036696850153 0.017545090448 0.052931604804 
0.015346057566 0.055916065546 0.0187104324 0.025923052032 0.042592231984 0.0070958681421 0.02088488801 0.020564135962 0.035916181143 
0.041517452045 0.059344322438 0.023820066128 0.067169567992 0.070193638262 0.047945604777 0.039798442401 0.10259486738 0.077323181425 
0.025149982847 0.024226986085 0.02920575827 0.049747628746 0.027495426799 0.053543377938 0.070115277965 0.069038410088 0.031695361283 
0.026358268222 0.030839496703 0.036686483384 0.036216839126 0.04000445924 0.023469993771 0.035502957704 0.070769541723 0.090275002884 
0.072642694411 0.082457141495 0.090743295472 0.093953956348 0.051837733252 0.074811939812 0.14361572319 0.069461064592 0.04562697144 
0.039500069825 0.044243769949 0.075037706804 0.055380741043 0.045541591789 0.052423404892 0.06946194162 0.035149328643 0.02242631776 
0.012785073793 0.013205419539 0.023473893155 0.029675611493 0.060509218052 0.044336905477 0.029140894983 0.051820606327 0.034551849722 
0.030204832374 0.034511817399 0.037724133492 0.042124734427 0.054758425571 0.0076718868074 0.028187144218 0.036368202922 0.028115332029 
0.024514082805 0.022773547916 0.041807139597 0.021998441803 0.022958052154 0.020389769916 0.028474483246 0.0324384092 0.059010705578 
0.037645342621 0.078047255538 0.014328810107 0.0066474977805 0.022353318505 0.023827323679 0.039803484746 0.031810456632 0.032681411773 
0.034245659535 0.054443032889 0.11259103538 0.057546755492 0.10151423977 0.042064318762 0.10195872666 0.11346684622 0.035985796153 
0.070636263678 0.094174675647 0.059134143872 0.068677555292 0.035507558988 0.047182767776 0.069196519983 0.038592873913 0.039970614976 
0.033143802051 0.076666976779 0.027915662968 0.053568243737 0.024060893924 0.034832106628 0.034495614892 0.061167562802 0.058297449866 
0.080973246495 0.076550667339 0.076494308477 0.075199827224 0.13480915231 0.12889255291 0.043622391812 0.044319712183 0.10361712142 
0.037322608875 0.05821925263 0.04274753189 0.066487611819 0.071522827164 0.059670217346 0.070559222782 0.054978186946 0.020353975964 
0.023883043897 0.065183486468 0.022906034877 0.032950140856 0.062994306644 0.029206924365 0.034619783976 0.051236018782 0.035624699427 
0.034569793216 0.031349128488 0.032683751918 0.014917568044 0.013689947262 0.014893164221 0.027814602368 0.036602299922 0.034085294965 
0.018218504601 0.066867076326 0.041175462985 0.024556690842 0.029013826048 0.016439170928 0.033564597492 0.054556602213 0.036116889588 
0.034112510511 0.034830817256 0.057574284006 0.02566813034 0.027388533207 0.031821844822 0.027270986137 0.027346452845 0.027927835807 
0.030982388585 0.16611107524 0.070624010778 0.057399967526 0.035362660164 0.074136447665 0.06692507319 0.03163160836 0.048519879216 
0.067498280963 0.033178620089 0.044786676717 0.02040321452 0.036889418222 0.050101151535 0.039007482583 0.050106607876 0.065935080743 
0.073645213597 0.039177321147 0.06713155065 0.031784027762 0.048760940383 0.048819627118 0.050980668036 0.051035180889 0.13787720623 
0.054394615365 0.1097722608 0.11169026084 0.051508710059 0.061885780706 0.031725018086 0.051666643001 0.036124978935 0.049707145686 
0.036752240566 0.031096344769 0.020523448212 0.020428082318 0.031508636393 0.02141382315 0.031973265589 0.034661426221 0.04184829127 
0.030885408911 0.031967026966 0.066131004529 0.028465652373 0.036437374937 0.013271757214 0.031139750343 0.034237925402 0.023686162027 
0.027530060607 0.025740279812 0.034075308817 0.038163932629 0.028543469633 0.017720837967 0.031694921556 0.025588400703 0.033024383202 
0.01357780945 0.021582369646 0.047520539646 0.03379155996 0.019695149877 0.048132883609 0.043727770584 0.043369572836 0.05475868334 
0.023816379417 0.023402608463 0.026610440358 0.012478029552 0.02901026401 0.024598768658 0.046170842737 0.054462258545 0.060067918796 
0.050480202839 0.079759658066 0.023027139711 0.042876679201 0.031592012329 0.063661971045 0.0261246641 0.020640203806 0.031561744161 
0.060716330356 0.060482084759 0.044660932641 0.05115386019 0.028214941352 0.016679002154 0.049260903058 0.058589337498 0.053553044867 
0.079798412658 0.046674915732 0.051322713218 0.036044600125 0.048801723637 0.064385787243 0.10369662013 0.054037245501 0.088615056629 
0.052065907426 0.059444295218 0.075759437582 0.088889991877 0.11976273172 0.053639702328 0.036831070688 0.055530563636 0.04448640064 
0.081838602191 0.1098795103 0.017608205003 0.010612238221 0.0097015867733 0.024540577141 0.020528613538 0.020859407478 0.036266125599 
0.025745906863 0.031634146631 0.034081206634 0.063564550449 0.030169350724 0.015859167388 0.039435896149 0.026437675409 0.052691335725 
0.038362811236 0.029151397628 0.02848018167 0.029252524618 0.081112128057 0.012907103828 0.032134017803 0.049692596998 0.028478253904 
0.043116393374 0.046332544376 0.038352317053 0.026561591289 0.037002938332 0.041770374641 0.037946786305 0.038081527788 0.022099805435 
0.0098309227941 0.01134353822 0.01385647428 0.023825749128 0.018353559077 0.03045553872 0.095330727406 0.063455810263 0.059465751781 
0.040364401795 0.0345180534 0.03486519944 0.040688051851 0.038897590808 0.061805038564 0.056232625949 0.035109157372 0.039015694312 
0.03960404138 0.035341743715 0.056401130896 0.043055418614 0.047340703709 0.04884526043 0.031790693186 0.020531765367 0.076976843405 
0.06520178575 0.046765073163 0.11353959561 0.069119978962 0.064681656653 0.046929327144 0.043869338705 0.069959016837 0.066250611428 
0.078630722916 0.052199119672 0.044255299189 0.043076329813 0.085056797546 0.039066186358 0.054597064612 0.069368815665 0.07047298914 
0.052891749704 0.023274567379 0.0094560737447 0.010931621318 0.018080732999 0.028486701898 0.018938044813 0.018697255086 0.024178306695 
0.026129568983 0.032147652442 0.041072959408 0.051840340713 0.04936561896 0.031444152003 0.034671505792 0.029743417032 0.036397433545 
0.053851606536 0.052092632956 0.028657751845 0.027742429647 0.027886670787 0.053893158321 0.035037572632 0.029483537495 0.043772518609 
0.05207161655 0.027747299576 0.04568229492 0.031853468565 0.032375804531 0.052048328835 0.040811167013 0.031830298087 0.049014403224 
0.041891261874 0.021620423252 0.017687608582 0.029613808785 0.023922379071 0.023925072936 0.027679026894 0.018330154676 0.031220607074 
0.091334907243 0.038209483549 0.092140913507 0.045774559288 0.0376340056 0.046495848335 0.062537756065 0.047536125717 0.049968710417 
0.046758516565 0.034166228825 0.075765183729 0.055135698811 0.048547872429 0.021498807246 0.048949676785 0.067401519866 0.045342872398 
0.033913089267 0.048743572994 0.12488255675 0.046472075496 0.042712156085 0.05767629122 0.096190922525 0.080415119455 0.052766747156 
0.036803276197 0.044179307904 0.10532834042 0.056704909663 0.071653826591 0.059078062136 0.064799144575 0.077348051979 0.1552654283 
0.083532739036 0.047607021743 0.034325311362 0.032899059448 0.024235498809 0.021866778634 0.020763399222 0.022523483743 0.024217436266 
0.029610611186 0.03083436263 0.020149427678 0.025547410105 0.030109570407 0.039216143909 0.037218241229 0.04047279948 0.044059997938 
0.033567779843 0.024130737208 0.044468707935 0.065820481735 0.065731950822 0.069213306453 0.047093354232 0.035448523655 0.022685916174 