# vtk DataFile Version 4.2
vtk output
ASCII
DATASET POLYDATA
POINTS 4996 float
-37.793 20.5315 -2.04835 -37.5988 20.1839 -2.24388 -37.8068 20.1825 -2.04595 
-37.9818 20.4395 -1.827 -37.4074 20.3826 -2.41481 -38.0051 20.8321 -1.83049 
-37.6119 20.5333 -2.23282 -37.3859 20.8412 -2.46449 -37.1535 20.3878 -2.63552 
-36.779 20.3793 -2.9672 -37.0643 20.1842 -2.74242 -36.7982 20.1826 -2.97303 
-34.4871 20.4804 -4.84707 -34.1962 20.1845 -5.00776 -34.5107 20.1875 -4.82054 
-34.1902 20.438 -5.0277 -33.816 20.2011 -5.19933 -33.6946 20.3915 -5.26092 
-33.3834 20.1791 -5.40952 -38.1167 20.4787 -1.64875 -38.1274 20.1826 -1.644 
-38.1987 20.1828 -1.51488 -37.769 20.8974 -2.07597 -37.584 20.9771 -2.27989 
-37.0172 20.7767 -2.79927 -36.685 20.1899 -3.06313 -36.4044 20.3795 -3.27662 
-36.4208 20.1875 -3.26653 -36.2348 20.1861 -3.4545 -36.2119 20.3842 -3.46413 
-36.0955 20.1826 -3.644 -35.1297 20.3626 -4.37781 -34.9143 20.1777 -4.52401 
-35.1982 20.1826 -4.32261 -34.0247 20.6983 -5.10922 -33.361 20.3955 -5.43071 
-32.9936 20.1998 -5.57307 -33.3157 19.9816 -5.44404 -32.9982 19.9826 -5.58271 
-32.5955 20.601 -5.70594 -32.5914 19.9844 -5.7067 -32.7957 20.1829 -5.64612 
-29.7099 19.9826 -4.244 -29.714 19.7826 -4.244 -29.8108 19.7825 -4.41914 
-29.6325 19.9826 -4.044 -38.1969 20.4537 -1.51058 -38.3181 20.1826 -1.244 
-38.1935 21.1035 -1.62148 -37.8312 21.3424 -2.07267 -37.2399 21.2429 -2.6242 
-36.7731 20.6975 -3.01594 -36.0143 20.402 -3.70074 -35.379 20.4025 -4.21182 
-34.7867 20.5099 -4.6355 -34.1569 20.9809 -5.03482 -33.7859 20.7798 -5.22913 
-32.8104 20.6857 -5.64235 -32.3951 20.6819 -5.74364 -32.1977 20.3656 -5.77323 
-29.809 20.0015 -4.43098 -29.5873 20.1565 -4.03606 -29.5279 20.1339 -3.90577 
-29.581 19.9824 -3.85537 -38.3184 20.473 -1.23805 -38.389 20.3791 -1.01923 
-38.2264 20.7891 -1.50515 -38.0038 21.3496 -1.8843 -37.4464 21.2136 -2.43911 
-36.9987 21.2871 -2.85306 -36.8304 21.4708 -3.01503 -36.3941 20.7604 -3.34436 
-36.2184 20.5782 -3.47398 -35.9371 20.1869 -3.83614 -35.3588 20.1867 -4.23817 
-35.3806 20.5884 -4.20212 -35.0303 20.8011 -4.45886 -34.5229 20.8523 -4.8033 
-33.8426 21.0808 -5.20619 -33.3965 21.1241 -5.41299 -32.994 20.7351 -5.57982 
-32.5987 21.0382 -5.68617 -32.3935 21.326 -5.71907 -32.1261 20.7782 -5.77497 
-31.9982 19.9826 -5.79967 -32.1982 19.9826 -5.78357 -30.5767 19.9918 -5.31752 
-30.7092 19.7826 -5.444 -30.7515 19.9839 -5.46129 -30.209 19.9811 -4.95644 
-29.9899 19.981 -4.68875 -30.1949 19.7811 -4.92973 -29.6514 20.1826 -4.244 
-29.5043 19.9826 -3.644 -29.5045 19.78 -3.61847 -29.2706 19.9776 -3.17687 
-29.3082 19.7826 -3.244 -38.4015 20.5859 -0.990517 -38.3218 21.1727 -1.42468 
-38.304 21.3857 -1.5011 -37.986 21.579 -1.97342 -37.6544 21.2975 -2.24419 
-37.1498 21.5991 -2.76153 -36.6058 21.2292 -3.196 -36.2014 20.7822 -3.49461 
-35.8437 20.3884 -3.88061 -35.6291 20.3832 -4.05153 -35.3511 20.7775 -4.22098 
-34.7788 21.0922 -4.64318 -34.5042 21.1824 -4.82326 -34.1902 21.4619 -4.99834 
-33.0057 21.5305 -5.5567 -32.7108 21.3841 -5.65505 -32.2038 21.182 -5.7455 
-31.9671 20.2962 -5.78988 -31.1889 20.7239 -5.69459 -31.0194 19.9842 -5.6252 
-31.2378 19.9806 -5.69393 -30.8051 20.2208 -5.51746 -30.6482 20.1867 -5.40662 
-30.5002 19.7826 -5.244 -30.0524 20.1727 -4.82983 -29.8963 20.1826 -4.644 
-29.7825 20.18 -4.49324 -29.5952 20.3912 -4.33251 -29.415 20.4451 -4.01852 
-29.3982 20.1939 -3.644 -29.3985 19.9825 -3.42888 -29.1983 19.781 -3.00686 
-29.0255 19.9876 -2.75832 -29.0995 19.7842 -2.8294 -28.8757 19.7826 -2.444 
-28.8219 19.9833 -2.42642 -28.7377 19.786 -2.25154 -38.4523 20.3727 -0.672027 
-38.4195 20.8601 -1.03432 -38.3545 20.8065 -1.23886 -38.122 21.5915 -1.81958 
-37.7301 21.5876 -2.21664 -37.4978 21.5912 -2.45074 -36.5936 21.6566 -3.24297 
-36.3288 21.1004 -3.42529 -36.0342 20.782 -3.64974 -35.8443 20.7642 -3.83507 
-35.572 20.7878 -4.04096 -35.3628 21.0242 -4.22413 -34.9687 21.3378 -4.51062 
-34.0068 21.5746 -5.08868 -33.736 21.5706 -5.25084 -32.1982 21.3826 -5.74921 
-32.006 21.1803 -5.75609 -31.7783 20.6043 -5.78588 -31.7982 19.9826 -5.7909 
-31.6442 19.9805 -5.77574 -31.4067 20.2022 -5.74168 -31.0006 20.2922 -5.62654 
-30.3982 20.183 -5.1984 -30.2426 20.187 -5.04416 -29.3982 20.3826 -3.92519 
-29.24 20.3826 -3.644 -28.589 19.9862 -2.11298 -38.4607 20.5706 -0.587974 
-38.4868 20.3919 -0.400738 -38.4652 20.7798 -0.761177 -38.3981 21.128 -1.24936 
-38.4251 21.3947 -1.306 -38.3978 21.5846 -1.44324 -38.2327 21.7994 -1.79792 
-37.6463 21.8053 -2.37653 -37.2746 21.7813 -2.69796 -36.8405 21.8533 -3.06897 
-36.3822 21.4722 -3.39463 -36.1827 21.0348 -3.52806 -35.5896 21.0071 -4.02475 
-35.3389 21.3535 -4.24435 -34.8054 21.6892 -4.6248 -34.5197 21.7364 -4.80353 
-34.0006 21.7757 -5.09373 -33.4169 21.5728 -5.39664 -32.649 21.6088 -5.68401 
-32.3173 21.5747 -5.75759 -31.5893 20.4832 -5.77434 -31.404 20.6238 -5.7467 
-30.9789 20.6881 -5.62296 -30.8027 20.7428 -5.5449 -30.6219 20.5646 -5.41985 
-30.1875 20.4205 -5.03277 -29.9984 20.3846 -4.84386 -29.7985 20.3972 -4.64203 
-29.6289 20.4228 -4.4364 -29.4094 20.6015 -4.22975 -29.1632 20.5973 -3.86599 
-28.9983 20.3827 -3.24381 -29.1105 20.1174 -3.0724 -28.7884 20.1848 -2.65352 
-28.6728 20.0719 -2.31484 -28.5991 19.7904 -2.0289 -28.5982 19.6765 -2.044 
-38.5243 20.3826 0.155994 -38.5209 20.3826 -0.0440063 -38.5411 20.1767 0.25539 
-38.5233 20.5801 -0.0362894 -38.5077 21.0442 -0.83295 -37.9983 21.782 -2.04405 
-37.0578 21.7856 -2.87206 -36.3986 21.9453 -3.43325 -36.0219 20.9832 -3.65338 
-35.1028 21.5151 -4.4288 -35.1441 21.7702 -4.40555 -34.1939 21.9259 -5.00983 
-33.6738 21.793 -5.29343 -33.1871 21.8055 -5.50799 -32.9365 21.7795 -5.6167 
-32.0005 21.4166 -5.773 -31.7982 20.9826 -5.76471 -31.571 20.9806 -5.75328 
-31.3 20.9752 -5.71951 -30.9883 20.9345 -5.64346 -30.3856 20.5553 -5.23306 
-29.5273 20.5826 -4.444 -29.1111 20.7826 -4.044 -28.9918 20.5473 -3.49375 
-28.9982 20.1259 -2.844 -28.5982 20.2602 -2.444 -28.586 20.1532 -2.24644 
-28.4037 19.9812 -1.76911 -28.3999 19.7943 -1.61749 -28.2641 19.9826 -1.444 
-28.3326 19.7826 -1.444 -38.5007 20.3894 0.392026 -38.5191 20.9744 -0.63145 
-38.4916 21.1923 -1.0394 -38.5512 21.6206 -1.23273 -38.5652 21.9411 -1.46253 
-38.2215 21.9693 -1.91647 -37.96 21.9952 -2.19758 -37.6804 21.903 -2.38992 
-37.3101 21.9661 -2.72956 -36.9361 22.0388 -3.04397 -36.6633 22.1766 -3.2707 
-36.0919 21.9087 -3.66498 -36.1259 21.3856 -3.5958 -35.9841 21.2051 -3.69512 
-35.8127 20.9823 -3.84024 -35.7492 21.4428 -3.91785 -35.4089 21.6813 -4.20804 
-35.1407 21.9872 -4.42398 -34.5873 21.9801 -4.78262 -33.9982 21.9826 -5.1244 
-33.399 21.8488 -5.42946 -32.5967 21.8017 -5.73972 -32.1638 21.8182 -5.84839 
-31.6902 21.1801 -5.76194 -30.599 20.7864 -5.44381 -30.363 20.7982 -5.29139 
-30.1907 20.5831 -5.0756 -29.9291 20.5672 -4.86303 -29.6257 20.6074 -4.61261 
-29.3869 20.7957 -4.50199 -29.0005 20.7946 -3.94253 -28.8128 20.5623 -3.30381 
-28.6126 20.5116 -2.86894 -28.5966 20.3794 -2.64222 -28.4286 20.2014 -2.03895 
-28.3522 20.157 -1.85412 -28.2854 19.7826 -1.244 -28.3318 19.5826 -1.244 
-28.3222 19.5826 -1.044 -38.4336 20.3826 0.755997 -38.4501 20.1826 0.755997 
-38.5159 20.5863 0.384433 -38.5425 20.7166 0.165523 -38.5435 20.8016 -0.0522732 
-38.5968 21.2072 -0.519163 -38.6716 21.5463 -0.874519 -38.6045 21.5412 -1.06663 
-38.4285 21.9821 -1.6816 -36.2972 22.2265 -3.56051 -34.3107 22.1496 -4.99092 
-33.6467 21.9675 -5.33734 -33.3592 22.2362 -5.54128 -33.0099 22.125 -5.6694 
-32.4159 21.8617 -5.81108 -31.7677 21.7495 -5.86915 -31.7982 21.3826 -5.78671 
-31.2997 21.1813 -5.7415 -30.9193 21.2473 -5.69026 -30.7982 20.9826 -5.58875 
-30.4393 20.9754 -5.40902 -29.7982 20.5826 -4.76683 -29.4626 20.8416 -4.65271 
-29.0634 20.9482 -4.27875 -28.8042 20.6082 -3.4066 -28.8121 20.451 -3.0723 
-28.4013 20.4235 -2.43777 -28.4126 20.3526 -2.28461 -28.2072 20.1962 -1.55362 
-28.1981 19.9824 -1.24431 -28.2537 19.7797 -0.927351 -28.3108 19.5826 -0.844006 
-28.2491 19.7826 -0.644005 -28.3139 19.5826 -0.644005 -28.2828 19.7715 -0.418694 
-28.3337 19.5826 -0.444004 -28.383 19.6052 -0.161179 -38.3981 20.1811 0.976717 
-38.451 20.5826 0.755997 -38.5844 21.0286 -0.0679941 -38.782 21.9501 -1.05127 
-38.7754 22.1115 -1.23677 -38.5578 22.2112 -1.6441 -38.3981 22.1855 -1.84129 
-38.2023 22.1728 -2.04439 -37.9604 22.1623 -2.27039 -37.5825 22.3452 -2.6578 
-37.3686 22.2438 -2.78597 -36.6496 22.3459 -3.34061 -35.8182 22.179 -3.94206 
-35.8998 21.5768 -3.80871 -35.5353 21.9857 -4.13512 -34.7923 22.1809 -4.68477 
-34.6173 22.242 -4.82366 -33.8607 22.1662 -5.26819 -33.6015 22.2377 -5.43257 
-32.693 22.1888 -5.8141 -32.3899 22.2761 -5.93383 -32.0204 22.1763 -5.98251 
-31.6017 21.416 -5.80138 -30.7121 21.2746 -5.64342 -30.0958 20.8225 -5.10915 
-29.7896 20.7768 -4.87148 -29.6154 20.7809 -4.75266 -29.1966 20.9833 -4.51191 
-28.7953 20.9856 -4.03734 -28.8156 20.7998 -3.77853 -28.7366 20.7671 -3.66016 
-28.5884 20.7684 -3.45713 -28.6021 20.588 -3.01182 -28.3407 20.5813 -2.64383 
-28.2598 20.4412 -2.06438 -28.1974 20.3788 -1.82454 -28.1863 19.946 -1.04033 
-28.3956 19.7884 0.0788468 -28.4451 19.5826 0.155994 -38.389 20.3911 1.04947 
-38.5346 20.7716 0.452033 -38.6194 21.1405 0.10143 -38.6737 21.4683 -0.650406 
-38.7342 22.3106 -1.43596 -37.0448 22.5249 -3.13689 -36.3092 22.3887 -3.5967 
-35.7894 22.3657 -4.0293 -35.8781 21.9702 -3.85353 -35.1526 22.1972 -4.45346 
-34.6284 22.5728 -4.93918 -34.0429 22.5691 -5.31136 -33.7909 22.3801 -5.39169 
-32.8971 22.54 -5.85731 -32.1931 22.1922 -5.95871 -31.8011 22.2004 -6.01754 
-31.402 21.405 -5.7942 -31.1324 21.3827 -5.7664 -30.7951 21.7244 -5.81128 
-30.5499 21.2374 -5.56915 -30.0819 20.9605 -5.18248 -29.354 21.021 -4.72743 
-29.0001 21.1581 -4.5184 -28.7658 21.1737 -4.24962 -28.3986 20.7852 -3.11762 
-28.4034 20.6071 -2.77006 -28.2326 20.5929 -2.43686 -27.9759 20.4365 -1.34522 
-28.0303 20.2869 -1.24793 -28.182 19.9303 -0.834807 -28.1795 19.9343 -0.647363 
-28.2407 20.0184 -0.0640947 -28.4879 19.7872 0.40698 -38.3157 20.4755 1.36324 
-38.2956 20.1826 1.356 -38.4713 20.9095 0.956445 -38.6084 21.111 0.363774 
[...]
CELL_DATA 9867
FIELD FieldData 1
Area 1 9867 double
0.050101750502 0.050290921679 0.071983156494 0.05777095915 0.019877251781 0.077113490788 0.050610100179 0.034760659505 0.05368436683 
0.053947542741 0.047292921504 0.021840683035 0.033292976553 0.043722386487 0.061126045027 0.057327589164 0.066567155398 0.10389617962 
0.098492543411 0.014234253806 0.032045340284 0.025407887243 0.023389404998 0.031552336966 0.07317811864 0.044450538852 0.0754211794 
0.05546799273 0.040475668186 0.042533845488 0.037655214755 0.065298342105 0.020012164488 0.021449957545 0.040105943151 0.02168350313 
0.078545203156 0.077639282848 0.048905857092 0.063698483743 0.10709927979 0.053663171106 0.046140787157 0.026597029189 0.033200511289 
0.028719608477 0.058888532036 0.063475725234 0.095036089329 0.04579884224 0.05581591671 0.072902539682 0.04549132646 0.052910017395 
0.055717400507 0.063012427853 0.1011988742 0.023094916463 0.019114293812 0.016092980304 0.033653366817 0.043270396106 0.027095576789 
0.046537268102 0.078647586099 0.066386799201 0.063340095141 0.046361111613 0.052623475225 0.083862714441 0.1246362291 0.07908706249 
0.093169662828 0.051349805335 0.029919337752 0.027303789357 0.019556906139 0.027734414319 0.084641017394 0.067450833211 0.084078809818 
0.058163645315 0.042712626288 0.16370783923 0.10566277867 0.05195882034 0.048682647931 0.065833042197 0.052445870553 0.038436432306 
0.022998110468 0.034609050694 0.034602475908 0.022111064884 0.022823748777 0.013034425475 0.018628997944 0.02280353371 0.041119177011 
0.025234208283 0.050002137001 0.041160653932 0.065835562552 0.030182612551 0.037878828648 0.042610222551 0.047423675549 0.056051562016 
0.055102923553 0.10626013701 0.12581661612 0.021298689133 0.033476075826 0.026043955786 0.027705567088 0.03289812084 0.086055501723 
0.089206742261 0.08918917342 0.069793229108 0.088474390214 0.075334441639 0.15101799385 0.076680456677 0.057873972563 0.046455797711 
0.06164065946 0.058632529919 0.050175907059 0.037322208166 0.085042914866 0.037311277641 0.022649632053 0.053323123855 0.043836114121 
0.033909655049 0.031855599291 0.026239990248 0.023486085079 0.024208287558 0.03267812693 0.02431978538 0.029158910045 0.025552245152 
0.020719760812 0.045831383391 0.024013089586 0.036605044836 0.038082213236 0.049383246577 0.056207863985 0.027765423031 0.058118665665 
0.024501942984 0.04296738184 0.034328314764 0.052981417539 0.088784873156 0.05260639185 0.066570082821 0.067814593151 0.024652865642 
0.043409441511 0.046519013042 0.086742289033 0.027122120792 0.049393099068 0.07199456063 0.053012848961 0.093090102061 0.061812713252 
0.11791697744 0.16950843631 0.11581738459 0.052627616604 0.019656313798 0.040003148534 0.070037593369 0.031392997262 0.048110833486 
0.046023091828 0.070461955527 0.034612036193 0.035056581997 0.021500294234 0.031721624466 0.051436276927 0.029250604664 0.024565938521 
0.017697740472 0.032094399979 0.055803522856 0.014049051736 0.039760057353 0.027775699766 0.065595561419 0.048930868219 0.039802601147 
0.039457318407 0.026248400912 0.040910177433 0.036539021128 0.035718163891 0.031204736344 0.024955925078 0.047748188034 0.021949378265 
0.039055027907 0.048304559311 0.043819211802 0.080314651156 0.060686717449 0.059242142036 0.062964928117 0.040541365967 0.028843639306 
0.05006682248 0.051704625098 0.037033575642 0.031121639526 0.0373410894 0.070477067322 0.12300798564 0.065149894715 0.09948973968 
0.10284925421 0.020129713846 0.077556805574 0.078755987086 0.098486881409 0.039895747645 0.038367466396 0.022439512798 0.019878905823 
0.08047097892 0.055610669658 0.050922552341 0.054259179587 0.046591114049 0.044309196402 0.058086758284 0.049963447724 0.06167034763 
0.023103183623 0.034119955628 0.026315090856 0.021599188179 0.016563722291 0.03881875524 0.018272969515 0.03770489488 0.031310209651 
0.11351045603 0.039000267679 0.048297288745 0.019942165188 0.026744690318 0.014950330731 0.020651322848 0.050515903626 0.041697782187 
0.034921236317 0.03475944747 0.025015885911 0.023096771692 0.051951422614 0.036223293504 0.050806204 0.036648476411 0.051661721535 
0.025920263202 0.022725702252 0.070486010108 0.062730218468 0.031201330498 0.023752488014 0.02082782384 0.026811844827 0.03770730982 
0.049437557346 0.039284425374 0.078971191588 0.093929553232 0.089196002966 0.049011000866 0.031765390313 0.039002180192 0.056901827584 
0.044276414801 0.043802343585 0.021229288633 0.023454468445 0.03741215476 0.048328000957 0.039359117099 0.033508060258 0.027117218547 
0.037578449343 0.04295474199 0.056271314724 0.040972153421 0.036374986878 0.029545963059 0.031548356722 0.032474205073 0.01070925496 
0.02775430753 0.051762710806 0.042872600889 0.044762035502 0.049733691487 0.035079086616 0.019560078689 0.023843471681 0.042793632831 
0.023847097922 0.014476047344 0.039252475455 0.045317555425 0.019674481933 0.024954910483 0.019746292984 0.035412611985 0.059270723345 
0.024763270826 0.035642333125 0.038246256032 0.032469625791 0.028093092972 0.083449038614 0.032218105565 0.054176343328 0.025103103698 
0.026521215141 0.030931514558 0.081335043009 0.091467920316 0.060973223435 0.024083374056 0.030688019452 0.031320498979 0.10577290744 
0.055424222165 0.01584779645 0.044382577758 0.059452357635 0.053585993405 0.023156420839 0.041944285162 0.041602838369 0.031928843255 
0.03534970612 0.034666965525 0.034635663697 0.053178117385 0.037408663448 0.031193524008 0.04308831601 0.045145063562 0.048303313711 
0.03800181475 0.024252515319 0.025260780989 0.03759913286 0.021147017761 0.026421287054 0.027216356339 0.030470097502 0.018500505877 
0.031829959287 0.066094627997 0.019091490306 0.052027895019 0.032402782112 0.040924109491 0.061630822393 0.029780776548 0.015157134058 
0.026631046645 0.038081711095 0.03463697311 0.021660444173 0.02106511935 0.020551987844 0.037143038709 0.023439541138 0.033154715787 
0.079548384241 0.069340251945 0.02859074556 0.054189052974 0.051959685352 0.025755273746 0.04888557774 0.030926696003 0.029337169655 
0.041812025746 0.016519340307 0.048100140414 0.055997162725 0.039859820021 0.062307571351 0.057472799984 0.088434641761 0.038170400779 
0.031161713471 0.035041199638 0.093248629593 0.082598688197 0.044236544956 0.035285405558 0.080349297933 0.048781948091 0.028942588557 
0.042961212832 0.033314365611 0.025881452266 0.046615618397 0.047797173522 0.064439075556 0.031291516746 0.035701537707 0.076085861344 
0.019028757353 0.02256679031 0.02829292684 0.05228619415 0.02431745615 0.018599456256 0.031451698417 0.031604628137 0.027673059304 
0.017662557431 0.024970106904 0.028300035936 0.022522397181 0.061105949455 0.020309437353 0.054852700281 0.01196039094 0.029568017108 
0.056825586844 0.063676533212 0.03451155587 0.028101833699 0.026886932827 0.032244062714 0.027301853765 0.033460774903 0.0414406968 
0.02275053338 0.032799054886 0.020688043381 0.02102786724 0.01971867571 0.02805180594 0.022753744892 0.037135524679 0.037195166232 
0.03738034233 0.023563853936 0.065786264764 0.065374333699 0.087132273367 0.037371018173 0.041502932377 0.069483661146 0.033741755338 
0.035214040336 0.040221335914 0.032042157792 0.10833228048 0.071018295037 0.027591777975 0.039705604686 0.093043619719 0.074479898134 
0.049809425239 0.085453188901 0.07463812903 0.066128324299 0.046331935665 0.048760211988 0.040587288019 0.041571092961 0.052737524417 
0.073903273489 0.071820234375 0.040888155124 0.055875905792 0.080318540964 0.038692919701 0.021971028808 0.039082733362 0.039873350741 
0.033086017876 0.028339563608 0.048782605499 0.026878326766 0.0402197801 0.043262345328 0.017759391967 0.024776851442 0.02145080284 
0.023270146989 0.035267438539 0.0499344474 0.051436306101 0.033071200484 0.013651858185 0.033128798909 0.02084862067 0.041290576248 
0.036307012848 0.02066804945 0.036016147245 0.030124012689 0.041090789538 0.024300453462 0.022402322715 0.029112031051 0.029244291279 
0.023877359563 0.045916158634 0.032744159277 0.030868307754 0.029804876442 0.035519211845 0.024894925695 0.024508252526 0.041410164128 
0.02589372738 0.044596100722 0.053524509985 0.049184617605 0.046875499997 0.029329764252 0.031225503833 0.029292794986 0.10150770176 
0.03518199809 0.12334620494 0.10800477379 0.035143506336 0.060965360707 0.02686448649 0.054710779382 0.0387008859 0.070894187405 
0.051895159716 0.045504105804 0.02978262896 0.062896296177 0.11312694985 0.039292545458 0.019509586376 0.090701081448 0.070066479243 
0.06686353717 0.038450579431 0.033956369221 0.052990088837 0.036422397074 0.024429397481 0.044771303027 0.034536023609 0.05177037769 
0.028180970834 0.055260575093 0.03856901048 0.025254132347 0.046621772147 0.022713299445 0.018938190446 0.029862981795 0.03440529092 
0.048426188019 0.034649300749 0.027222884413 0.032574299871 0.06145112993 0.018486399306 0.013711093154 0.026013767601 0.019008355546 
0.046906596585 0.034737337814 0.064060534944 0.056820963376 0.035740785944 0.01773718239 0.023652116046 0.01888532574 0.067415724004 
0.035307103141 0.057681027195 0.03079566278 0.068268041172 0.070545255255 0.052165767249 0.040341387287 0.056782996383 0.045508765291 
0.058637261095 0.043296574126 0.024316725695 0.021314848077 0.054060459496 0.034819174292 0.029476490679 0.032662600013 0.053789407502 
0.037336785072 0.068762474596 0.059144201336 0.062142065354 0.056292372916 0.021837757831 0.046030150525 0.087029670687 0.041269647282 
0.068043313028 0.043400883248 0.033347003495 0.035668369165 0.090217629064 0.041212159191 0.030253224328 0.049119312366 0.081881839237 
0.062984355459 0.060904708948 0.037754038732 0.028698351146 0.037018354724 0.044121533847 0.035587691171 0.039578932408 0.029676674089 
0.062606584045 0.090362193544 0.039818705409 0.031782740628 0.030077105234 0.029024593632 0.050043450576 0.014182856078 0.033548436741 
0.053137916885 0.032958840317 0.037552740095 0.019229701465 0.030933239938 0.058784437784 0.048190063946 0.018810522434 0.030572756855 
0.07658737597 0.037415064466 0.066977560605 0.033855863729 0.039112975957 0.03662553973 0.015408437233 0.033522621933 0.033338491566 
0.026876835221 0.036119230978 0.021360096933 0.035530460966 0.043462435013 0.06911970332 0.052219856395 0.063842295739 0.049543850893 
0.041471410478 0.055524121455 0.050498830539 0.070011373138 0.060858902561 0.04487033014 0.024768334101 0.028303841923 0.032778811336 
0.059445511527 0.055803766255 0.034762834018 0.035975347214 0.066448255322 0.044167266548 0.087986840314 0.047600165632 0.055771061933 
0.07468551603 0.040933515735 0.070899933182 0.039280600619 0.027114541567 0.035078213312 0.079890038328 0.026671411396 0.030629666495 
0.091185873665 0.033653436129 0.083978126059 0.050114665502 0.044926567196 0.0460839367 0.073414291789 0.068408778288 0.042437194364 
0.05760120846 0.054681337015 0.024904333358 0.098216757172 0.10779142476 0.085390929385 0.067971913245 0.037029513071 0.097745585509 
0.11184571984 0.03198076947 0.043450109136 0.028892890557 0.034429267836 0.025898825999 0.045040526613 0.046230693319 0.056484172285 
0.033409345238 0.049375858535 0.059896626002 0.073620298495 0.019010697666 0.045763267495 0.056920190141 0.030446785186 0.07244898543 
0.063788037617 0.05577116739 0.027441480608 0.022678658486 0.036960156339 0.015046266807 0.068779214756 0.061869364476 0.048361451397 
0.031780286903 0.042000835827 0.020204719635 0.032896097425 0.053445677666 0.080621962785 0.12377801109 0.023362119699 0.032112322533 
0.039251814911 0.039325803243 0.033598924346 0.041135393528 0.023625991072 0.040268317623 0.06998062331 0.091896993779 0.075341116181 
0.057796044477 0.02762835565 0.040948730306 0.053842057009 0.06668941242 0.089124196338 0.037586169287 0.05314270872 0.061256498494 
0.062977579461 0.064867598593 0.041629590098 0.054573040433 0.040366580212 0.058941069741 0.048825337126 0.065304311511 0.036928767022 
0.048198627838 0.050828972651 0.054388351509 0.064262280328 0.060100709281 0.057642013283 0.048787718626 0.058577207808 0.081701644405 
0.053072117345 0.053109609959 0.047149351837 0.042401137298 0.058131072954 0.041865883748 0.034476898955 0.053158067344 0.035147037754 
0.033665922969 0.02083813595 0.047397225929 0.037609881241 0.05800609551 0.031737192325 0.048476812127 0.055702805685 0.034297527507 
0.062239998639 0.061700468328 0.048293107457 0.04530977454 0.087310827468 0.062930928587 0.032942120235 0.024815016345 0.035211978665 
0.033954606775 0.036992473844 0.02618878578 0.050319650167 0.041756295871 0.04312271454 0.027542722771 0.05898447398 0.023183294205 
0.027836885225 0.03652417103 0.062687799429 0.058889924869 0.10391370197 0.063067365407 0.041317375729 0.040489327731 0.029797175925 
0.026423672614 0.023847769125 0.037364045153 0.034793103064 0.06812484885 0.041496754713 0.066806488432 0.074324759447 0.079650130183 
0.042362134602 0.038777087838 0.10031829199 0.03923785509 0.037427897812 0.044669996442 0.08414538313 0.059700741981 0.063334324031 
0.02896471246 0.06649235731 0.075889566091 0.050908444382 0.04419091935 0.044948915536 0.042370755872 0.10272385041 0.10526406927 
0.050785338186 0.056455386252 0.03382666057 0.06039613032 0.080879788319 0.04909261575 0.070598095122 0.04443107721 0.061501754408 
0.069409177862 0.045446002167 0.049682634882 0.038665515616 0.041512038168 0.05501718923 0.038034882592 0.059014197069 0.031286822422 
0.060013921885 0.036230628945 0.033805410518 0.030527462569 0.064848193392 0.098948191882 0.033006067518 0.036315156596 0.048850960184 
0.027484902446 0.023003499398 0.042328445366 0.049548800363 0.035417663011 0.036954976654 0.030472018461 0.046755667033 0.035176595847 
0.038119673545 0.060771408367 0.043683692647 0.049576316645 0.040728749955 0.043499585766 0.039372923963 0.04973079433 0.066551035981 
0.025655714059 0.025795987684 0.035074113329 0.082509786367 0.043736159619 0.039746149072 0.056824002528 0.049866512956 0.042666076288 
0.091018734694 0.063921321316 0.059319849838 0.065013514674 0.097063677907 0.077107912256 0.12039245297 0.038812353714 0.063242421643 
0.10005784019 0.090145696044 0.075644103335 0.048164635511 0.061350237098 0.039326496427 0.088310604795 0.10252012902 0.043690137612 
0.047607158482 0.13839663993 0.089075916251 0.11240484292 0.086488592039 0.07395261294 0.061668301131 0.056875614026 0.045666009859 
0.038855583264 0.059436237979 0.069107598226 0.059751669896 0.041678936897 0.046384038391 0.065659317405 0.072071105099 0.040984917373 
0.043544904012 0.063267102841 0.03660401478 0.033878728852 0.036445472554 0.031151199906 0.032683433808 0.053230465096 0.035487323453 
0.026969058899 0.032152363876 0.027174045101 0.027736809224 0.045421095363 0.057174958589 0.02806628224 0.054523301843 0.041450269064 
0.055802548991 0.086756762689 0.028069125517 0.073719583041 0.057124265074 0.034653989365 0.037058112012 0.044437129048 0.040630083127 
0.033967021861 0.026241990856 0.13206740527 0.053150806456 0.046587000266 0.046198850407 0.042042130594 0.095584013981 0.058178599341 
0.048238895666 0.035611264688 0.030617504173 0.064921532199 0.04661359338 0.054676982026 0.044613229315 0.055414629778 0.06973801074 
0.041491381717 0.065248962129 0.12068683338 0.058990231274 0.065996633791 0.076885178756 0.12537587239 0.07681994344 0.069882690097 
0.11879697671 0.044553970651 0.075978904809 0.059690088253 0.053751063534 0.061430573846 0.066419868358 0.039375476617 0.055522016943 
0.056848907521 0.10460726184 0.12523599999 0.073349654418 0.035105636277 0.032453188203 0.074383814213 0.093012028477 0.068054305907 
0.045107278082 0.045295196784 0.040568275174 0.044972722548 0.034078149533 0.046528138929 0.028776480498 0.033654197841 0.064594524472 
0.052122618287 0.039045301839 0.049661084389 0.050800034016 0.027641287369 0.027668480698 0.03038716887 0.054208402538 0.031245672388 
0.035264084279 0.030094349849 0.033846170643 0.058281779039 0.028412644 0.026755862524 0.047054528109 0.016931788803 0.051751773972 
0.02763782861 0.024160328816 0.040842964042 0.039560818448 0.054702373325 0.073050824661 0.069754585725 0.059727158232 0.05625595856 
0.074665734458 0.030587571458 0.041645743414 0.043218082041 0.049875353972 0.016050753743 0.037530674259 0.071361697883 0.05809872975 
0.053729505452 0.071443793661 0.065556133235 0.056925099545 0.031494650566 0.035254751483 0.031318809852 0.066755897141 0.091486554436 
0.03057491195 0.05182125098 0.056314079401 0.045214922336 0.068125068481 0.044901997526 0.070779226708 0.042520767465 0.025420910061 
0.069455149793 0.064022657834 0.071817454438 0.15559179533 0.03034814356 0.074969028901 0.04874283221 0.12289331836 0.049918096039 
0.0381856839 0.046214994358 0.051319818273 0.087712550487 0.029897501107 0.028611589496 0.12764615998 0.041019831145 0.054334929941 
0.053890831344 0.020819910011 0.028499958743 0.065151263464 0.039182964749 0.029645360726 0.035426518009 0.04123081959 0.062300745286 
0.036871324541 0.034217975739 0.027734438623 0.079150412988 0.062949048321 0.047830606795 0.047972475984 0.041426972641 0.066917241415 
0.052553685395 0.038967446473 0.031399071172 0.025175215283 0.030050462427 0.024798992546 0.045860981018 0.017892734583 0.04477576752 
0.026402172791 0.11763457273 0.033847826948 0.023172177144 0.043920683453 0.037681100987 0.029501501284 0.020537336545 0.067069977106 
0.04342305919 0.042977193479 0.071918420184 0.019964065516 0.065184371001 0.047410466836 0.041970494432 0.06115758691 0.035624674952 
0.040937051904 0.032268645334 0.035780147165 0.060169777377 0.0087446423771 0.025266136331 0.014860384091 0.035626023909 0.079770840315 
0.043058409511 0.048655921369 0.048730999619 0.11258764284 0.054346894721 0.04303720117 0.055642141329 0.033577948503 0.041808340982 
0.059387336149 0.057686809865 0.036152791374 0.030886241598 0.071860360873 0.048717821723 0.063490632886 0.049986361018 0.067722235767 
0.15477951057 0.063579205405 0.081706376778 0.044810184483 0.09357601288 0.069463929647 0.089849803792 0.051229123587 0.056160441575 
0.09779696611 0.064933004414 0.094500684834 0.070178492467 0.056403131317 0.11413695119 0.14888540334 0.040041254637 0.097363394222 
0.076084215647 0.042986262189 0.054727922219 0.064406029241 0.071046597986 0.055695375922 0.059539429787 0.02594099823 0.024375619036 
0.038587558703 0.032806231054 0.044501621964 0.032876420375 0.042637135051 0.071593784987 0.090737618512 0.067652741431 0.11584983044 
0.051906090397 0.053137165145 0.070503002294 0.058093235929 0.057187842479 0.035909263208 0.047668119923 0.030429739838 0.025745304104 
0.055269717265 0.060838497973 0.054517329378 0.038349964316 0.042917689989 0.053141350548 0.067811210936 0.027785534828 0.041547451342 
0.064278510286 0.090137983913 0.02617049566 0.034049906995 0.033991722409 0.052238201266 0.041772395757 0.041028569315 0.047120790681 
0.043496615766 0.031633616053 0.020080156316 0.03848059802 0.039998603636 0.022936287239 0.035179016574 0.098907916945 0.11071837585 
0.044629954275 0.050616042521 0.071010278825 0.090682277962 0.048072951969 0.072508246663 0.047632339431 0.031381605308 0.035443279017 
0.041538849097 0.034767407891 0.03371571736 0.052249645373 0.039927373711 0.077078329051 0.043028275522 0.054095182114 0.043959972596 
0.047850129705 0.07780620652 0.043017974875 0.043559004226 0.06031496956 0.073560107429 0.047830091574 0.06161537113 0.066097740922 
0.039866416897 0.033186341205 0.081145102551 0.12296269676 0.093369779433 0.11434463859 0.10575616554 0.06489600841 0.03346083358 
0.02845760458 0.084781716816 0.14108897706 0.1479823819 0.094122469319 0.058722325897 0.06721154933 0.052863560466 0.046790150079 
0.086738532154 0.073997093099 0.08084209125 0.069187881871 0.073603397302 0.079323954512 0.043768422941 0.041364040489 0.031242217181 
0.067902115608 0.067746807072 0.026869796216 0.038835009052 0.040627274678 0.042367250073 0.04710930629 0.035473275295 0.043606577794 
0.028410500963 0.038075694444 0.078233305758 0.054923823609 0.036174345867 0.03559076703 0.04350839425 0.056973561477 0.027584787056 
0.038587869859 0.033868830343 0.033819876945 0.071050499016 0.032923748924 0.02617211783 0.053706638927 0.030731401665 0.044147094533 