# vtk DataFile Version 4.2
vtk output
ASCII
DATASET POLYDATA
POINTS 4347 float
-32.7595 21.6501 -5.93118 -32.4795 21.3171 -6.02385 -32.8454 21.3208 -5.86391 
-32.2876 21.3122 -6.12382 -32.41 21.1185 -6.0723 -32.0834 21.1183 -6.22168 
-34.0586 21.3245 -5.2396 -34.0569 21.1167 -5.27155 -34.2768 21.2549 -5.07372 
-33.0624 21.6991 -5.77486 -33.2588 21.317 -5.66266 -32.5828 21.8706 -6.03881 
-32.2985 21.5425 -6.1445 -32.0834 21.3183 -6.21578 -31.9085 21.1233 -6.27459 
-31.866 21.4385 -6.28558 -31.6447 21.4608 -6.33133 -34.615 21.5346 -4.84271 
-34.4877 21.3189 -4.90782 -34.0716 21.5223 -5.24339 -33.2995 21.8237 -5.6637 
-33.5603 21.326 -5.49582 -31.6607 21.8375 -6.31215 -31.4677 21.5452 -6.35188 
-36.0493 21.1184 -3.67851 -36.2834 21.0341 -3.47778 -36.4913 21.1164 -3.29914 
-35.0863 21.121 -4.43568 -34.6971 21.3142 -4.74163 -34.7432 21.1229 -4.70709 
-34.3023 21.6603 -5.09359 -33.7361 21.6421 -5.42154 -33.0083 21.9059 -5.82635 
-32.293 21.7509 -6.159 -32.0911 21.6185 -6.23347 -31.8823 21.8162 -6.27761 
-31.4852 22.4817 -6.29939 -31.28 21.9817 -6.33994 -31.2859 21.5475 -6.36032 
-36.8536 21.3708 -2.9731 -36.6866 21.1189 -3.10587 -36.1111 21.3884 -3.65524 
-35.1434 21.3232 -4.38765 -34.5737 21.8459 -4.90961 -34.0995 21.8425 -5.23118 
-33.6605 22.0529 -5.49869 -33.459 22.1441 -5.61592 -32.7253 22.16 -5.96497 
-32.5618 22.3123 -6.03157 -31.8639 22.2571 -6.26072 -31.7193 22.4671 -6.27738 
-31.0822 22.0197 -6.33354 -31.1247 21.4246 -6.35395 -30.9011 21.3433 -6.33157 
-30.8818 21.8292 -6.32207 -30.6858 21.3555 -6.29266 -36.8805 21.1178 -2.91738 
-36.551 21.5141 -3.27594 -35.8582 21.4091 -3.8736 -35.4906 21.3212 -4.12822 
-35.2817 21.5392 -4.29816 -34.8503 21.8536 -4.66685 -34.4643 21.9925 -4.99984 
-34.3119 22.295 -5.10575 -33.2848 22.5092 -5.71397 -33.0796 22.3153 -5.80798 
-32.3249 22.4913 -6.12417 -32.0879 22.2543 -6.20858 -31.6118 22.7214 -6.29856 
-31.1607 22.3129 -6.31958 -30.6532 21.8927 -6.28757 -30.5525 21.6494 -6.26162 
-30.4834 21.3183 -6.23934 -30.2797 21.4915 -6.17408 -30.2834 21.1183 -6.16358 
-37.1138 21.1169 -2.71185 -36.7729 21.8864 -3.06998 -36.2925 21.8429 -3.51311 
-36.1093 21.7878 -3.66893 -35.8821 21.1137 -3.84196 -35.6366 21.1127 -4.0425 
-34.6173 22.4201 -4.88245 -34.0738 22.4294 -5.26744 -33.7043 22.5812 -5.48784 
-33.4809 22.6391 -5.61411 -32.747 22.5699 -5.97643 -31.8813 22.6826 -6.25634 
-31.2377 22.5277 -6.31247 -30.8706 22.3061 -6.30808 -30.087 21.1167 -6.05564 
-37.3045 21.3072 -2.52455 -37.2819 21.1184 -2.51534 -37.4514 21.1191 -2.26776 
-37.136 21.3134 -2.71797 -36.7862 22.0858 -3.06735 -36.2957 22.113 -3.52013 
-35.8609 22.0708 -3.85751 -35.6881 21.3683 -4.00271 -35.5133 21.6641 -4.12151 
-35.2502 21.8352 -4.34524 -34.8256 22.306 -4.6982 -34.4917 22.6216 -4.97935 
-34.1128 22.9097 -5.22168 -33.4369 22.9204 -5.62195 -33.0284 22.5944 -5.85199 
-32.3917 22.9404 -6.10758 -32.0895 22.8853 -6.20944 -31.9198 23.048 -6.27739 
-31.1874 22.7218 -6.33254 -30.8834 22.5183 -6.31593 -30.6375 22.295 -6.27836 
-30.4127 21.8658 -6.21293 -30.0985 21.3668 -6.0801 -29.8663 21.316 -5.89676 
-29.8763 21.1184 -5.88194 -37.7219 21.6818 -1.88889 -37.6488 21.1226 -1.93695 
-37.7619 21.1094 -1.69242 -37.5808 21.3677 -2.11003 -37.4829 21.3329 -2.27828 
-37.1412 21.6936 -2.71016 -37.0173 21.7627 -2.84075 -36.1067 22.1429 -3.67299 
-35.7564 21.7759 -3.94022 -35.2412 22.2527 -4.36697 -34.903 22.7111 -4.68636 
-34.7061 22.8263 -4.83347 -33.0251 22.9177 -5.84327 -32.6834 22.9183 -5.99725 
-31.6932 22.9927 -6.32455 -31.49 23.0433 -6.36894 -30.697 22.5489 -6.3072 
-30.46 22.2815 -6.24152 -30.0674 21.6028 -6.08453 -29.69 21.316 -5.72179 
-29.6821 21.1187 -5.68598 -37.8207 21.5574 -1.67143 -37.3287 21.5293 -2.50557 
-37.0743 22.2622 -2.82055 -36.3817 22.4947 -3.47684 -36.0954 22.6849 -3.70892 
-35.6073 22.4361 -4.08154 -35.3917 22.0897 -4.24618 -35.2005 22.6804 -4.44471 
-33.7087 22.9294 -5.46782 -33.4876 23.121 -5.60197 -32.6542 23.11 -6.02438 
-32.2834 23.1183 -6.17067 -32.2349 23.3357 -6.23893 -31.1544 22.901 -6.37463 
-30.8812 22.8144 -6.36533 -30.4254 22.525 -6.25735 -30.2669 22.2706 -6.18178 
-30.0583 22.0648 -6.0834 -29.8795 21.5869 -5.96081 -29.71 21.6592 -5.82564 
-29.4945 21.0745 -5.47885 -37.8442 21.1162 -1.45617 -37.7819 22.0171 -1.87648 
-37.589 21.7299 -2.12014 -37.4857 21.5518 -2.27674 -37.3125 21.7169 -2.52041 
-36.7307 22.413 -3.16003 -35.8364 22.4052 -3.88996 -35.3829 22.4903 -4.26207 
-35.1335 23.0754 -4.5304 -34.9199 23.1154 -4.68648 -34.0803 23.1238 -5.2517 
-33.0556 23.1195 -5.84243 -31.5898 23.3162 -6.42423 -31.3223 23.1803 -6.43473 
-30.6764 22.9525 -6.3881 -30.3541 22.7835 -6.29211 -29.8746 22.0822 -5.98267 
-29.5627 21.6471 -5.67074 -29.3137 21.3201 -5.27116 -37.8421 20.9183 -1.47778 
-37.9067 21.129 -1.18811 -37.8904 21.5499 -1.44106 -37.8917 22.1061 -1.68252 
-37.6682 21.9813 -2.05826 -37.2884 21.9235 -2.56637 -37.266 22.2876 -2.64414 
-36.985 22.5304 -2.95628 -36.4306 22.6694 -3.45839 -35.859 22.868 -3.91208 
-35.4231 22.8114 -4.27336 -34.6222 23.1188 -4.89816 -33.416 23.3091 -5.67364 
-32.9757 23.3384 -5.92056 -32.6752 23.3685 -6.06948 -32.1068 23.6122 -6.36981 
-31.0839 23.2257 -6.48207 -30.8922 23.3088 -6.50793 -30.0498 22.7249 -6.18633 
-29.9259 22.4759 -6.08331 -29.9494 22.3107 -6.06367 -29.6995 21.9124 -5.84922 
-29.4428 21.5319 -5.49998 -29.2982 21.1197 -5.25991 -37.9277 21.9057 -1.50682 
-37.8681 22.3779 -1.87341 -37.694 22.3166 -2.12997 -37.481 21.9248 -2.31265 
-37.2837 22.5086 -2.68025 -36.7773 22.7545 -3.18906 -36.1845 22.9066 -3.67568 
-35.5872 23.1387 -4.1839 -34.9222 23.3194 -4.71639 -34.3854 23.3109 -5.08257 
-33.7876 23.3166 -5.45257 -32.3459 23.5214 -6.25688 -32.0067 23.7175 -6.44074 
-31.2954 23.669 -6.59605 -30.5274 23.5028 -6.52199 -30.4607 23.1895 -6.42206 
-30.0876 22.992 -6.2895 -29.6273 22.3185 -5.89421 -29.4806 21.9411 -5.6752 
-29.2754 21.9092 -5.47672 -29.2876 21.501 -5.28622 -29.1866 21.1183 -5.07777 
-37.9636 21.4326 -1.05944 -37.9807 21.7177 -1.17152 -37.974 22.1183 -1.47778 
-37.9422 22.3183 -1.67778 -37.546 22.1957 -2.2954 -37.4187 22.224 -2.46015 
-37.3799 22.7349 -2.69417 -37.1093 22.7002 -2.90839 -36.5554 22.9653 -3.41716 
-35.8906 23.1145 -3.93935 -35.327 23.3493 -4.43226 -33.8042 23.5289 -5.50253 
-33.2813 23.5453 -5.82601 -32.8616 23.5171 -6.03825 -32.6804 23.9023 -6.26653 
-32.418 23.9355 -6.36553 -31.4758 23.78 -6.5948 -31.0849 23.6616 -6.61241 
-30.6834 23.7183 -6.60781 -29.7459 22.982 -6.20728 -29.6789 22.7065 -6.07616 
-29.6592 22.539 -6.00232 -29.6857 22.1431 -5.87331 -29.4689 22.1197 -5.72081 
-29.1899 21.7183 -5.27777 -29.1292 21.52 -5.05727 -29.0997 21.318 -4.90901 
-29.0834 21.1183 -4.87784 -37.9468 21.1293 -0.889282 -38.0093 22.005 -1.28184 
-38.0584 22.5689 -1.66692 -37.8351 22.4943 -2.01444 -37.6851 22.5903 -2.27872 
-37.484 22.5177 -2.47831 -36.9575 22.8951 -3.10055 -36.3492 23.1543 -3.62465 
-35.7985 23.2957 -4.06958 -35.1884 23.5327 -4.59409 -34.788 23.5069 -4.86308 
-34.0715 23.5373 -5.33117 -31.8716 24.135 -6.58901 -31.2854 23.96 -6.66025 
-30.8734 23.8414 -6.65514 -30.4834 23.7183 -6.57376 -30.1416 23.5119 -6.46382 
-30.0834 23.3183 -6.3997 -29.8458 23.1105 -6.28544 -29.4509 22.3579 -5.81692 
-29.2834 22.1183 -5.59166 -29.0823 21.918 -5.27846 -28.9642 21.1183 -4.67778 
-37.9685 21.1141 -0.482027 -37.962 21.1207 -0.692435 -37.9661 20.919 -0.474922 
-38.0345 21.7246 -0.87319 -38.047 21.9286 -1.01847 -38.0935 22.3001 -1.30139 
-38.0593 22.4183 -1.50093 -37.3273 23.0532 -2.89499 -37.0975 23.0539 -3.07042 
-36.9076 23.24 -3.2736 -36.6506 23.3351 -3.49224 -36.0925 23.5051 -3.92591 
-35.6504 23.5791 -4.28168 -35.3903 23.6969 -4.52012 -34.4184 23.5232 -5.11695 
-34.084 24.0137 -5.4987 -33.4778 23.9572 -5.87104 -33.0518 23.7035 -6.01785 
-32.812 24.1123 -6.26088 -32.1586 24.2713 -6.52123 -31.6793 24.0261 -6.61189 
-31.5934 24.3084 -6.68835 -31.0783 23.9957 -6.6799 -30.6834 23.9183 -6.64984 
-30.4834 23.9183 -6.60179 -30.2834 23.7183 -6.51677 -29.8834 23.3183 -6.35555 
-29.651 23.1712 -6.25396 -29.4146 22.9168 -6.07933 -29.1407 22.7395 -5.87031 
-29.1996 22.28 -5.62828 -29.0688 22.1462 -5.43424 -29.0831 21.708 -5.12603 
-29.0366 21.5183 -4.87777 -28.9564 21.3183 -4.67778 -37.9631 21.1251 -0.283364 
-38.0725 21.8436 -0.699955 -38.0904 22.1361 -1.08471 -38.2638 22.8459 -1.49797 
-38.0615 22.7622 -1.8615 -37.8924 22.7179 -2.09862 -37.5837 23.0768 -2.67103 
-36.5101 23.8935 -3.78222 -35.8026 23.5562 -4.16601 -35.0381 23.7713 -4.78906 
-34.5885 23.6937 -5.06672 -34.3122 23.7684 -5.26467 -33.7481 23.8382 -5.65931 
-33.1398 23.911 -6.04375 -32.8834 23.9183 -6.17774 -32.4834 24.1183 -6.39029 
-32.1969 24.5358 -6.55312 -31.2853 24.3931 -6.74085 -30.8834 24.3183 -6.72242 
-30.6872 24.1081 -6.67459 -30.2475 23.9176 -6.49436 -30.1682 23.7183 -6.47777 
-29.8834 23.5183 -6.37783 -29.4834 23.1183 -6.17213 -28.906 22.698 -5.70741 
-28.9161 22.1186 -5.27169 -28.8897 21.9293 -5.05014 -28.8894 21.7286 -4.81319 
-28.8834 21.3183 -4.5914 -37.9938 21.4617 -0.0768797 -37.937 21.1195 0.0198038 
-38.0732 21.8429 -0.189184 -38.0983 21.9098 -0.475937 -38.1338 22.1175 -0.789501 
-38.1911 22.5183 -1.27778 -37.8345 22.9527 -2.31845 -37.6851 22.9165 -2.47926 
-37.4766 23.355 -2.85639 -37.188 23.3856 -3.10626 -36.7648 23.5659 -3.48903 
-36.1328 23.7253 -3.98508 -35.8629 23.9633 -4.26302 -35.6356 24.0859 -4.4691 
-35.2855 23.9685 -4.6875 -34.4616 24.0825 -5.30155 -34.2495 24.1278 -5.44075 
-33.7741 24.1353 -5.73511 -33.2678 24.1322 -6.03624 -32.8612 24.3814 -6.27839 
-32.4954 24.3667 -6.42644 -31.8577 24.5666 -6.67627 -31.4809 24.6175 -6.74816 
-31.0842 24.4283 -6.753 -30.4834 24.1183 -6.60238 -30.2753 24.0774 -6.46864 
-30.0834 23.7183 -6.4458 -29.6834 23.4531 -6.27777 -29.6632 23.3183 -6.2824 
-29.4834 23.3183 -6.18783 -29.2863 23.118 -6.07635 -29.2834 22.9183 -6.02429 
-28.8834 22.9183 -5.77953 -28.9118 22.3316 -5.45458 -28.8834 21.6313 -4.67778 
-28.8966 21.5216 -4.63651 -28.8548 21.1088 -4.52179 -37.8791 21.1293 0.303087 
-37.8903 20.9202 0.191736 -37.9741 21.5198 0.127054 -38.261 22.555 -1.07105 
-38.3043 22.8242 -1.32253 -38.2629 22.9905 -1.64404 -38.0627 22.9563 -2.01211 
[...]
CELL_DATA 8579
FIELD FieldData 1
Area 1 8579 double
0.066180285184 0.021315000476 0.034801637848 0.029404923402 0.087489537508 0.058853591913 0.066897038547 0.025049588879 0.02240492592 
0.018290539068 0.035129423571 0.024741414714 0.027425205466 0.087203554948 0.064135183069 0.042700393792 0.06981226548 0.025923933793 
0.033358238707 0.042821693099 0.034358391452 0.024263317437 0.041795944562 0.029399699598 0.082014175945 0.055244764253 0.038183804162 
0.088798438435 0.096289230173 0.031679457069 0.05070261168 0.033377398683 0.033959571214 0.034480946879 0.042558463708 0.088592089028 
0.039557425842 0.034496468852 0.078963649974 0.057275402629 0.06383679981 0.058017740245 0.041978167618 0.062648259196 0.093511380074 
0.060447905193 0.065968490868 0.070334820459 0.023134749209 0.042051121375 0.049333704434 0.074550034949 0.092017042879 0.042889975486 
0.050695612767 0.068690366532 0.05302542111 0.034304736251 0.089516449769 0.11187492019 0.045901616958 0.04391740584 0.092897008766 
0.057730859261 0.037215007935 0.077901270278 0.09488588164 0.044982453287 0.11462457871 0.073729220395 0.03774769162 0.09800807575 
0.068104633565 0.068138534413 0.050724611087 0.052482873946 0.029125267511 0.063980327589 0.030540942022 0.050659408495 0.061039248255 
0.033292641266 0.039921177232 0.039496125758 0.10141448554 0.11757056947 0.066626366468 0.034638501831 0.069996717439 0.047027231178 
0.13674320085 0.10545538944 0.044444544133 0.059097969388 0.081707507028 0.14666057868 0.063554859706 0.053148518167 0.039221753641 
0.043232263925 0.050069070945 0.088294022219 0.048946357033 0.032833755993 0.032551775796 0.032623434094 0.028397849651 0.042372882974 
0.04904104522 0.05472153843 0.031933619748 0.041703134636 0.041842913586 0.028551165709 0.024595198023 0.037933142744 0.015446112893 
0.15644590851 0.04701063491 0.048325376034 0.1048720948 0.03235078176 0.040491485764 0.02838439163 0.048584600442 0.075602169111 
0.060669023327 0.053339199954 0.063542292474 0.073062238146 0.11695568881 0.064118803139 0.033753201551 0.037894042073 0.072652267093 
0.097724351406 0.079230246769 0.067203813897 0.050639150576 0.04145834332 0.037698394601 0.030780032279 0.047378443822 0.029253623398 
0.042697225829 0.024265685063 0.027089172675 0.076088906244 0.047902446964 0.032740751807 0.025376592287 0.072608151598 0.097386310673 
0.066744014664 0.032553651097 0.054729962283 0.042332068302 0.041659506253 0.039580239217 0.04656200523 0.10696616388 0.11921564542 
0.060406703737 0.042357400407 0.10510214385 0.1077274827 0.034931188519 0.095926119587 0.047163797643 0.043817667205 0.053597601743 
0.06971075385 0.035920599893 0.029761505521 0.069720289091 0.034792589553 0.020023580305 0.0295933092 0.036584667559 0.051663535564 
0.050827981539 0.02577139746 0.036430356342 0.024643676488 0.027352666172 0.056532575531 0.061250150694 0.020941337862 0.033417244894 
0.028591744854 0.053519803167 0.042567291701 0.089888085716 0.1289581356 0.043086087453 0.084467064228 0.074206835209 0.056670623449 
0.058743171614 0.038620461708 0.11192324156 0.079033245888 0.055739036597 0.083386322442 0.082578418898 0.054381836687 0.04683893313 
0.060607212007 0.054412143615 0.029578303891 0.032013650999 0.037383215252 0.02474062559 0.030452847061 0.033332046154 0.045917831741 
0.028038117495 0.034371041988 0.022363825144 0.041742713891 0.086263480636 0.026835310765 0.039305265804 0.043279738422 0.026981201856 
0.056230604855 0.042813756568 0.048215180743 0.021264463675 0.0303451684 0.024235770006 0.046892603231 0.071463762257 0.073279420238 
0.047855496376 0.096997082497 0.058314281829 0.049339106956 0.12503271996 0.074286344482 0.055525885271 0.047421701305 0.074224406269 
0.050493679258 0.074108814231 0.050258853943 0.031113458349 0.049968110913 0.037868799172 0.042507944096 0.035153874373 0.044638001166 
0.11209322067 0.031608086289 0.036826602925 0.026578866353 0.040744699611 0.037026942353 0.024890291109 0.061848057686 0.048309547613 
0.055693130852 0.031551920618 0.03666196984 0.071552676912 0.027109830293 0.05250785416 0.060550728798 0.035515906229 0.03613102808 
0.03436699931 0.02628113443 0.027038204954 0.075774276643 0.053488986858 0.04341069163 0.037078260281 0.072590151501 0.069294280291 
0.039016321933 0.043763561692 0.062522104212 0.053777481704 0.053262826725 0.094417151656 0.06633190039 0.0470873025 0.049459409387 
0.05247475562 0.05354930843 0.099107451046 0.031185805742 0.039094857307 0.049815269759 0.053632897084 0.069369375495 0.044248984959 
0.063193352806 0.039606600986 0.025111857421 0.054105137963 0.027118744937 0.042124056469 0.064243783783 0.02988411216 0.059802457127 
0.043118869438 0.050478031898 0.039193895894 0.037358750782 0.037223814114 0.042121182854 0.03296014828 0.045974075351 0.029357870158 
0.053427189497 0.055308062355 0.075048819175 0.04742719728 0.043129463888 0.070484630351 0.090737011638 0.087958209676 0.026880536521 
0.037523834549 0.061927351705 0.067404935375 0.041397893169 0.054180379809 0.044131098519 0.044295688464 0.030110498854 0.04678380296 
0.071824665794 0.061086271996 0.049803923323 0.089501254064 0.059191649249 0.043290382933 0.063948360217 0.028054879906 0.042521274374 
0.027583115446 0.040948318118 0.048301260762 0.024262628482 0.021398512841 0.067335281901 0.055580260525 0.023462215502 0.023389743419 
0.055466029279 0.040301288213 0.041850252664 0.049083039755 0.043608188725 0.041370618605 0.026290107025 0.049165388524 0.041447853445 
0.060488888081 0.063768470654 0.050088828682 0.088041396623 0.072319032067 0.064972222164 0.063977027914 0.067041349156 0.047261656969 
0.059284000144 0.02914229302 0.043794671942 0.067317746265 0.036257519419 0.12863999144 0.051457637066 0.048049633111 0.043666078324 
0.057365615207 0.043856399934 0.068890473019 0.049333461551 0.048413387414 0.022797655509 0.043023180304 0.018708977912 0.025374002897 
0.025964180099 0.043716572861 0.053440732432 0.031292151055 0.025502460276 0.042263691552 0.022467732712 0.046126252311 0.049732352916 
0.039923992467 0.023707065595 0.023799719868 0.029993266243 0.023651602461 0.039223971749 0.033835935648 0.04246561935 0.033803277267 
0.027945174959 0.037401118796 0.044212682802 0.052537116112 0.067152620689 0.048784579765 0.054264053053 0.050176261075 0.06347721769 
0.080114212808 0.034715330429 0.073281255318 0.045971103234 0.11421946461 0.052371181583 0.1085497594 0.11385737303 0.027661343431 
0.031483209915 0.056744739646 0.053844970034 0.022644415653 0.063896519499 0.065597715729 0.023863175746 0.05629575404 0.026315104793 
0.024193352123 0.024615155889 0.03076830417 0.020774611103 0.030556547922 0.029334485221 0.031482695414 0.043616773579 0.0232564357 
0.020522718624 0.054263654619 0.043943873706 0.034737330494 0.030768749613 0.031982638219 0.025274286627 0.030862781487 0.036683352253 
0.043753126303 0.041301911504 0.040685713648 0.061715560036 0.033395933861 0.087449399258 0.059225593994 0.10902363773 0.034505659924 
0.08108917428 0.037716691309 0.049030298221 0.048825232712 0.044388424209 0.079499504471 0.13502790769 0.044276238825 0.062405757356 
0.032058025102 0.070758034972 0.013699659413 0.062823792513 0.035227135467 0.03544377092 0.019532544705 0.0204800092 0.023307860745 
0.041391101504 0.042316504837 0.035210217474 0.028976939037 0.017245298254 0.048674136641 0.027167498646 0.081913569413 0.025182268004 
0.020307405102 0.031176191127 0.03597443103 0.020550457376 0.018720420974 0.020707814641 0.027218821545 0.019435698488 0.076956375768 
0.059476376826 0.031937680018 0.026344306747 0.032352645299 0.031606730754 0.042491510468 0.051242896789 0.034986831288 0.10613488364 
0.059619488725 0.05403271646 0.035735405495 0.066852485949 0.12064642047 0.15537243841 0.046722484769 0.025441361632 0.06379895446 
0.046298591266 0.063433781034 0.041462419716 0.050834946484 0.069194219477 0.072105286782 0.047527817877 0.078613010317 0.037347569074 
0.027006425074 0.022902076874 0.033481851376 0.037075557138 0.037507618522 0.033288075669 0.040826615752 0.068310068374 0.045702495302 
0.048547121379 0.018383087792 0.020993517751 0.026127378576 0.020755325708 0.012562874815 0.027195171048 0.020602158579 0.022919029816 
0.020972206981 0.034440342079 0.088113211866 0.067194004136 0.038450755632 0.023407220397 0.027348337488 0.035262414872 0.037599929132 
0.023661566218 0.027700445089 0.011310452369 0.052298265379 0.071714624658 0.090286958819 0.064204491481 0.026778566084 0.031397979084 
0.02872528577 0.026717137529 0.055638721243 0.051575499583 0.036190951571 0.048272865863 0.024646420823 0.051122313963 0.049472625638 
0.051721137417 0.044959531873 0.061331698331 0.049349886231 0.0497417876 0.040301984658 0.084722922481 0.055526676289 0.1462044881 
0.033884682954 0.036646318406 0.041132968216 0.058454700281 0.051304979967 0.040496801471 0.031614841612 0.028301634313 0.048018230143 
0.043925639834 0.04552902407 0.078452332492 0.061524230547 0.04365846518 0.044256174513 0.043773806678 0.04638128353 0.020713816181 
0.020568966475 0.021205733884 0.012137173619 0.0093500706884 0.027888528467 0.02216073202 0.017286171294 0.018515560341 0.022824321469 
0.014261933308 0.032697901561 0.082639422434 0.032607033055 0.026271617926 0.034582990852 0.045246531917 0.021406981072 0.028576979017 
0.01154453965 0.019673908017 0.029722310273 0.038336145862 0.059572572837 0.11593975947 0.034626698746 0.041731708292 0.067615317803 
0.047749933627 0.029448277664 0.038447155822 0.033591070839 0.048044808031 0.041347999043 0.019970599714 0.038198020129 0.061141433495 
0.0729801835 0.041284922992 0.031624323633 0.043444337747 0.079659354953 0.072552950123 0.068988806177 0.034924095847 0.094879405905 
0.060631131591 0.044641365014 0.036951544178 0.052370067508 0.040555732797 0.058755980379 0.05647325226 0.061376907406 0.049598470626 
0.075672395648 0.058116329206 0.064182082336 0.042813876843 0.032525466027 0.03299770009 0.020255397418 0.021539328981 0.02275363367 
0.024737998458 0.017391210313 0.009041113579 0.028297096042 0.0068519739701 0.015692895605 0.015073100884 0.018862340436 0.022531162382 
0.014606769583 0.021683705966 0.020166916411 0.027052778897 0.07481348058 0.034542770178 0.035286642234 0.041242312348 0.0076330486937 
0.015978323976 0.018841636276 0.015096029489 0.018710596521 0.057993049783 0.043133461916 0.030848666939 0.033659546765 0.057420740711 
0.036094294241 0.027368473584 0.030722107202 0.045574016193 0.077782405643 0.02358289872 0.028277412054 0.053860539598 0.049432197294 
0.06061503084 0.053673739291 0.024507183138 0.026882881161 0.06748503397 0.059823034594 0.096162216592 0.066992110351 0.024786883317 
0.054100299232 0.031054459519 0.04741171036 0.034340718653 0.045694764953 0.052637898446 0.035799173257 0.035650370952 0.068815363208 
0.07431186433 0.053229082935 0.028130479962 0.030290308628 0.0291597993 0.029418612584 0.016966524159 0.024225656249 0.024687414132 
0.026074564701 0.024637965682 0.022523514941 0.02918387035 0.020714223047 0.010156714972 0.013757196324 0.020996082223 0.0333618187 
0.032929305409 0.025676059779 0.023650001089 0.02359996989 0.035034587836 0.056170379023 0.032170933926 0.034274894831 0.047643097301 
0.018611868353 0.012399238625 0.010578917325 0.014349270093 0.029296674209 0.038134785243 0.038436854516 0.040209151021 0.043909706571 
0.10917028264 0.041683505821 0.062655559836 0.057492537655 0.065268688394 0.061620954439 0.062354269777 0.032749352424 0.047947032943 
0.077457964997 0.050347944241 0.044880021617 0.066490252636 0.11042874856 0.060624817664 0.072292994789 0.08325549623 0.059516692524 
0.10520929681 0.11840403879 0.065789728921 0.046666710822 0.054434260352 0.032089925551 0.046317112376 0.036337911358 0.091119525851 
0.049504468643 0.075541792022 0.05166879968 0.079194328439 0.025211369345 0.020219190778 0.020009865418 0.021007701559 0.01558954396 
0.028608944015 0.013090345474 0.020813179508 0.022128183342 0.012419651849 0.029167565806 0.033364567344 0.02758016604 0.030150172957 
0.0279163238 0.020032930012 0.011570617727 0.027482464117 0.034086393603 0.033675250501 0.036079434218 0.039438633431 0.033104981469 
0.028466774953 0.022601475156 0.022451485789 0.021116356626 0.03549735106 0.028711272545 0.11114928038 0.056453952949 0.059267416464 
0.052627851499 0.047337581256 0.053333923838 0.049697222128 0.043060051226 0.055176371131 0.031403696006 0.043491709993 0.032840430786 
0.053647466429 0.040998280531 0.062517029808 0.075656142985 0.092579344804 0.14319726771 0.13175615615 0.090295571847 0.074992209667 
0.057087221932 0.071252263089 0.0652042169 0.061153216866 0.054110524282 0.072809677489 0.039035945119 0.063097918769 0.096796050416 
0.043641022295 0.088471131964 0.051810549746 0.025652839499 0.020322717814 0.020116926197 0.020335998756 0.02093895166 0.0073118238121 
0.020721121868 0.013672027629 0.042964592732 0.021040154828 0.014272636143 0.014638350248 0.029072799395 0.033115295111 0.038899430684 
0.032046618231 0.04022047597 0.026558396077 0.0036839659364 0.029419162012 0.029619817218 0.023709325594 0.03033785385 0.037078061663 
0.036327555258 0.062736895067 0.078203057696 0.024316216891 0.025111450835 0.023196620359 0.035307375978 0.032198768799 0.031045771878 
0.097793579205 0.10915140767 0.027406245762 0.06742488125 0.062017986807 0.028756242839 0.067849629805 0.024963388282 0.057245047339 
0.028052200481 0.11126336564 0.04291517894 0.02131659118 0.047297534626 0.031765635731 0.063451201259 0.04322682195 0.045911920288 
0.073497761185 0.14096377065 0.041937924594 0.038467882285 0.093738291241 0.032409577754 0.13133446258 0.058417656465 0.12877282033 
0.12267803147 0.056572561284 0.063387170491 0.069793673501 0.052083997281 0.11682765989 0.073753327801 0.017952984915 0.020436971302 
0.020619899257 0.020019317523 0.020226443222 0.015993963861 0.0052887489598 0.017355234005 0.050170796389 0.042547910744 0.030891892193 
0.019695317255 0.032281135618 0.033023447126 0.0344779393 0.015967548448 0.019262890131 0.023812752922 0.031027941061 0.029285245759 
0.018929206663 0.028766351961 0.029933485567 0.036339286289 0.074293835922 0.046497163359 0.025737605696 0.035368734185 0.045466062095 
0.041499048223 0.052558022385 0.095477991221 0.046904194745 0.035293875263 0.073483064863 0.11424266865 0.056505103116 0.075488615779 
0.062816515902 0.068393282638 0.033061901602 0.061531382936 0.04520926729 0.013186565342 0.029106403139 0.03456663349 0.036572799651 
0.15016296784 0.04177765236 0.069155047807 0.055770842498 0.1226806012 0.063065072102 0.061658453986 0.060998743856 0.052840958682 
0.035887080007 0.054141980789 0.031415264426 0.069842914337 0.056286237178 0.17179228249 0.098769388546 0.067392450963 0.086053345999 
0.07646791558 0.10420123299 0.065642548518 0.066008074185 0.021542870515 0.017384284845 0.020863603544 0.020672678538 0.020003477372 
0.020328812346 0.025566011994 0.02490247641 0.01489413604 0.041670218663 0.04174784133 0.036960962331 0.038123638356 0.028773211553 
0.030945705011 0.029661585611 0.030990105631 0.023930744868 0.032852043323 0.025972981345 0.029925929749 0.027160540696 0.010804973041 
0.014296231689 0.026993701916 0.032395894721 0.013039392325 0.030344538283 0.068650667484 0.061242383569 0.037735684501 0.018174731167 
0.044782870622 0.020286138428 0.033421417912 0.039554149896 0.071044722188 0.058782125983 0.033017087089 0.05152257303 0.045831927922 
0.062683989203 0.057086306641 0.077453629323 0.040401835821 0.058771332584 0.04560809688 0.032763057073 0.048387743923 0.022531419226 
0.068168666589 0.022299394246 0.038068673345 0.04456496563 0.023371825202 0.066865319788 0.08775019061 0.062097508361 0.082052371826 
0.032185294814 0.055075078601 0.11994782105 0.068672449021 0.070276460324 0.060397261605 0.069377760806 0.067493865894 0.027970316273 
0.042164730255 0.050163049735 0.046042056734 0.034326223698 0.0727818654 0.053772376729 0.05429687807 0.078728203186 0.14384458426 
0.072687341307 0.0098908293764 0.010564725884 0.019407504246 0.020144770796 0.020199816663 0.020216685013 0.01911993674 0.028619459939 
0.014318865451 0.018853080629 0.027165821861 0.042108377272 0.032407507666 0.036171101989 0.03381725492 0.027715195269 0.02492083372 
0.033590291654 0.020085814674 0.011482637759 0.014378037124 0.031478659489 0.028736854349 0.030053892924 0.01036544816 0.013936488555 
0.038870045263 0.025235525706 0.018362855317 0.014548185748 0.033468377198 0.012317408449 0.045559423276 0.065177078313 0.029688000007 
0.018712489074 0.032771924152 0.018590864381 0.016456266158 0.039913922143 0.039143572829 0.041395370074 0.067094906537 0.067935565224 
0.043613747254 0.055089939068 0.14555051992 0.065919128351 0.076698232928 0.019869358686 0.027658923727 0.037330534159 0.025656678823 
0.025411032156 0.021223536716 0.023951697347 0.020673427794 0.02161994934 0.022666224761 0.054420897974 0.054774288609 0.034233920283 
0.048087696054 0.079143020529 0.02897746074 0.071576139037 0.03722592554 0.095419923782 0.08073650688 0.043792734021 0.040501333179 
0.076869191658 0.069421164872 0.071619471458 0.08035680228 0.15013538597 0.058558360344 0.030596581856 0.030034264455 0.034634993141 
0.038581831301 0.047931800083 0.060587676344 0.048655616586 0.01703720646 0.027119652551 0.019397864262 0.023532463653 0.023069452139 
0.010331755023 0.013734190369 0.008703549419 0.033260490752 0.027882618469 0.016238781062 0.017003670241 0.037194615536 0.028262605905 
0.031649672063 0.024462371476 0.023551756268 0.02714896542 0.022106388003 0.021681376024 0.028244501235 0.028779418633 0.03697571664 
0.029497675507 0.033065714615 0.029056684123 0.018349573485 0.045042511169 0.019210962017 0.016155994638 0.030827550369 0.035447446212 
0.010543008723 0.11633360349 0.065180869428 0.059836854575 0.11573770137 0.048132038129 0.012622208809 0.020820946381 0.037734686502 
0.061391466058 0.098252726626 0.090270763504 0.09783909159 0.04354927968 0.016910181512 0.10502957692 0.033491384841 0.022197382635 
0.070725535575 0.029067307248 0.03170350853 0.035643400081 0.01602106138 0.019376227114 0.013096621916 0.026363708748 0.018220003962 
0.018950615973 0.022371449435 0.021508835714 0.033905558561 0.028055595749 0.011625689988 0.029830646358 0.017279287582 0.026520724496 
0.057923882944 0.053869873977 0.12478457272 0.12433972679 0.070113633696 0.033150922181 0.026371535924 0.021036754577 0.10036309875 
0.059170108503 0.016251965283 0.0637442485 0.02836924593 0.032546728529 0.042346711909 0.01235849854 0.019712976065 0.0076801971031 
0.019872644789 0.02021340139 0.10013919167 0.015374266249 0.01536120617 0.0099122237359 0.02837254315 0.020480709364 0.022693663764 
0.024592243108 0.0043732160432 0.0063666131312 0.016942734151 0.019199148148 0.02495918022 0.02553636422 0.011284406889 0.018545959482 
0.029700698657 0.012342564605 0.045118979565 0.025850041447 0.015334089222 0.021251633509 0.027529283159 0.025617027801 0.030083865497 
0.013760594003 0.015008014356 0.017551011368 0.015255521597 0.028588851535 0.04022154295 0.018358768299 0.028531664028 0.032303610626 
0.032115118394 0.034585654309 0.059428795641 0.18387424267 0.054636350757 0.021467040853 0.0066099301487 0.042509165445 0.047456001486 
0.041487875156 0.059070860545 0.12167570353 0.022099608556 0.0178989216 0.042845365926 0.026320914858 0.088720415182 0.032441594822 
0.030401013641 0.02739493117 0.027790502321 0.012280660403 0.020320131639 0.02916864287 0.013254844086 0.015960118525 0.020115189534 
0.022265198677 0.020218437287 0.018815341237 0.027650468228 0.0093421371614 0.021073570075 0.012398205071 0.019438483882 0.011875548822 
0.021532770982 0.05339656432 0.033406485385 0.052257499993 0.028185791693 0.02372559684 0.02113980347 0.01462186934 0.010311000673 
0.013426535857 0.027498194878 0.019082843041 0.028075198663 0.016857902588 0.02690963749 0.010341214355 0.024920153134 0.028599234277 
0.0074553568619 0.020037111197 0.02739491329 0.004083601212 0.0081275916045 0.020078121358 0.032596890034 0.026438830802 0.0061924619932 
0.02978076148 0.011305592988 0.01741838074 0.01929154813 0.0059812074446 0.0066349571864 0.012468033518 0.030807114761 0.041823928899 