# vtk DataFile Version 4.2
vtk output
ASCII
DATASET POLYDATA
POINTS 4023 float
-9.61939 17.9492 28.4884 -9.53238 17.7429 28.6316 -9.65141 17.7419 28.3351 
-10.0462 17.7992 27.6316 -10.0671 17.942 27.6336 -9.94841 17.9429 27.8316 
-9.89719 18.1894 27.8552 -9.7876 17.9431 28.1426 -9.44522 17.9532 28.9073 
-9.44485 17.7426 28.8968 -9.39511 17.7429 29.0316 -10.8193 18.1417 26.7921 
-10.8194 17.9443 26.8037 -11.0465 17.9444 26.631 -10.5023 18.1147 27.0943 
-10.4492 17.9397 27.1744 -9.67984 18.1625 28.2645 -9.46413 18.1442 28.7398 
-9.31044 17.7429 29.2316 -11.2461 18.1429 26.5384 -11.2461 17.9429 26.5205 
-11.0558 18.1667 26.6333 -10.3975 17.9429 27.2316 -10.289 18.4357 27.2482 
-10.2385 17.9434 27.4119 -10.0401 18.3359 27.6049 -9.79628 18.3651 27.9539 
-9.26249 18.1462 29.1046 -9.23558 17.9414 29.3394 -9.24703 17.7428 29.3751 
-9.12017 17.7429 29.6316 -8.68395 17.9444 30.3706 -8.70069 17.7429 30.4316 
-8.92171 17.7418 30.0366 -8.62202 17.7441 30.5951 -8.64615 17.5736 30.4316 
-17.0745 18.3451 29.236 -17.0552 18.1449 29.2135 -17.3038 18.1439 29.4261 
-16.7361 18.1324 28.964 -16.8461 18.0599 29.0316 -11.4613 18.1484 26.4591 
-10.852 18.4774 26.7252 -10.7098 18.4137 26.8419 -10.1238 18.5041 27.4291 
-9.6457 18.3398 28.2295 -9.53319 18.3429 28.4316 -9.23846 18.3394 28.9478 
-9.01126 17.9506 29.7872 -9.04803 17.7426 29.7867 -18.0638 18.3431 30.1961 
-18.063 18.1434 30.1831 -18.2441 18.1431 30.4112 -17.8083 18.3586 29.9286 
-17.8928 18.1431 30.0021 -17.5962 18.1407 29.7237 -17.3673 18.3539 29.5103 
-11.4879 17.9383 26.4285 -11.2339 18.4694 26.5205 -11.0132 18.5512 26.615 
-10.4566 18.3821 27.0873 -10.2459 18.7424 27.2314 -9.96617 18.5429 27.6316 
-9.85268 18.5245 27.7953 -9.64693 18.5605 28.0494 -9.44657 18.3395 28.5919 
-9.05746 18.3513 29.2415 -9.03927 18.172 29.5033 -8.78971 18.1069 30.0247 
-8.55764 17.9429 30.6316 -8.54593 17.7429 30.8316 -8.48974 17.743 31.1484 
-8.48913 17.5429 30.8316 -8.453 17.7441 31.4387 -8.4547 17.5308 31.2347 
-8.44843 17.5392 31.4616 -8.42096 17.7429 31.8016 -8.42326 17.5429 31.8316 
-18.2377 18.4159 30.4139 -17.4042 18.7655 29.5286 -16.7129 18.3518 28.9306 
-14.4212 18.1509 27.2393 -14.4461 18.0408 27.2316 -14.6954 18.1509 27.424 
-14.2461 18.1429 27.1393 -13.4523 18.1472 26.7506 -13.6461 18.0362 26.8316 
-13.8524 18.142 26.9451 -13.3673 17.9411 26.6377 -11.638 18.1395 26.4231 
-11.7891 17.9437 26.3746 -11.4519 19.0365 26.4664 -10.8326 18.9259 26.7319 
-10.6728 18.7461 26.851 -10.4358 18.8578 27.041 -10.045 18.7375 27.4309 
-9.48587 18.5291 28.3121 -9.21718 18.5517 28.6922 -8.92104 18.5955 29.1131 
-8.57062 18.1497 30.3931 -8.45365 17.9475 31.0351 -8.43531 17.7458 32.0825 
-18.3988 18.3557 30.6466 -18.3847 18.1429 30.6316 -18.042 18.7011 30.1636 
-17.9367 18.7682 30.0424 -17.6554 18.7458 29.7646 -17.1902 19.1394 29.2974 
-16.7298 18.5041 28.9277 -16.4461 18.3429 28.7206 -16.3692 18.1435 28.6568 
-16.1714 18.366 28.5021 -16.1073 18.1415 28.4296 -14.6837 18.351 27.4056 
-14.2461 18.6022 27.1136 -14.0461 18.0731 27.0316 -13.9968 18.5604 26.9923 
-13.2461 18.0154 26.6316 -13.0461 17.9429 26.5131 -12.0542 18.1501 26.3841 
-12.165 17.9442 26.3421 -11.8634 18.1395 26.3951 -11.2366 19.1238 26.5265 
-11.0077 18.9446 26.6279 -10.217 18.943 27.1816 -10.0462 18.9429 27.3176 
-9.84674 18.7548 27.636 -9.64919 18.75 27.8691 -9.48037 18.7601 28.0646 
-8.94489 18.8323 28.7351 -8.93979 18.3682 29.435 -8.70457 18.336 29.898 
-8.44015 18.1808 30.6649 -8.45554 18.0594 30.8302 -8.35774 18.0735 31.4137 
-8.33082 18.1014 31.6022 -8.33473 18.1143 32.0227 -8.4429 17.543 32.0951 
-18.7142 18.3566 31.4102 -18.7072 18.1429 31.4316 -18.744 18.1429 31.6316 
-18.6609 18.3453 31.2128 -18.648 18.1434 31.1923 -18.4442 18.1425 30.7404 
-18.5852 18.1429 31.0316 -18.2676 18.7436 30.4232 -17.6151 19.4816 29.6604 
-17.2951 19.1007 29.3939 -16.43 18.5985 28.674 -15.8616 18.1546 28.2406 
-14.8483 18.1426 27.5169 -14.466 18.5243 27.2435 -13.5009 18.5523 26.7624 
-13.2483 18.1494 26.6555 -13.0461 18.1429 26.5795 -12.2413 18.1521 26.3861 
-12.4548 17.9445 26.3631 -11.8687 19.0517 26.4092 -11.664 19.0594 26.4313 
-11.3206 19.34 26.4958 -10.938 19.1383 26.6504 -10.6509 18.9403 26.8514 
-10.3936 19.1124 26.9889 -9.86772 18.9865 27.4458 -9.06713 18.9374 28.3881 
-8.78058 18.8166 29.0372 -8.63548 18.7639 29.4015 -8.48768 18.336 30.3218 
-8.36444 18.1402 31.1349 -8.3168 18.1292 31.8215 -8.46111 17.7476 32.2188 
-18.7461 18.3555 31.5946 -18.753 18.1429 31.8316 -18.5907 18.3429 31.0316 
-18.4344 18.8186 30.631 -18.0771 19.0627 30.1494 -17.9436 19.2916 29.9961 
-17.1032 19.7101 29.1936 -16.7315 18.9451 28.9134 -16.4357 19.2526 28.6648 
-15.6693 18.3332 28.0922 -15.6457 18.142 28.0521 -15.6461 18.1056 28.0316 
-15.2483 18.1425 27.7611 -15.0461 18.0914 27.6316 -15.0295 18.3749 27.6235 
-14.6946 18.5672 27.3896 -14.2231 18.9822 27.1015 -13.7845 18.7929 26.8917 
-12.8461 18.1429 26.5118 -12.5866 18.137 26.4287 -12.4461 18.1429 26.4014 
-12.046 18.678 26.3998 -11.7219 19.3389 26.4342 -10.9366 19.3461 26.6193 
-10.6365 19.1272 26.8327 -10.2093 19.2441 27.0454 -9.95693 19.1467 27.2663 
-9.68185 18.9522 27.6442 -9.30595 19.1229 27.8875 -9.25399 18.9421 28.1391 
-8.74752 19.3262 28.4082 -8.45339 19.3002 28.9628 -8.66088 18.5382 29.6928 
-8.40507 18.578 30.1199 -8.35122 18.36 30.6465 -8.24294 18.4842 30.8186 
-8.24039 18.4355 31.0382 -8.24617 18.3411 31.621 -8.20246 18.5081 32.0316 
-8.3431 18.1977 32.2206 -8.52602 17.7429 32.4316 -18.7799 18.3332 32.155 
-18.7511 18.1429 32.0316 -18.779 18.1454 32.4225 -18.7731 18.3749 31.7963 
-18.7871 18.8863 31.4331 -18.5418 18.6811 30.8415 -18.2545 19.0715 30.3551 
-17.9464 19.5517 29.9587 -17.3601 19.5174 29.4395 -16.798 19.3938 28.9647 
-16.2365 18.6149 28.53 -15.8829 18.5428 28.2291 -15.4461 18.1429 27.8892 
-15.4147 18.3443 27.8912 -14.8042 19.0776 27.4649 -14.5369 19.398 27.2868 
-13.281 18.9189 26.663 -12.8016 18.3978 26.4945 -12.4595 18.4119 26.4052 
-12.196 18.996 26.4049 -12.0429 19.0353 26.4002 -11.4525 19.5641 26.4506 
-11.0462 19.5429 26.5359 -10.5392 19.3236 26.8341 -9.64498 19.5009 27.2478 
-9.43828 19.2939 27.5743 -8.82241 19.4508 28.148 -8.64316 19.3187 28.6097 
-8.42072 19.0075 29.44 -8.47128 18.7394 29.7338 -8.25146 18.6263 30.4245 
-8.20813 18.4445 31.8347 -8.44143 18.0531 32.4523 -8.54605 17.5429 32.4316 
-18.7835 18.3457 32.4107 -18.8675 18.9182 31.9134 -18.8656 19.0775 31.6547 
-18.7494 19.0433 31.2298 -18.6324 18.6164 31.0395 -18.6043 19.2305 30.8549 
-18.4433 19.1423 30.6111 -18.2296 19.388 30.2841 -17.7935 19.7431 29.7775 
-17.3861 19.7456 29.4357 -16.8162 19.9153 28.9522 -16.0963 18.9271 28.4064 
-16.06 18.5911 28.384 -15.5491 18.5529 27.967 -15.0611 19.1697 27.6272 
-14.1751 19.3255 27.064 -13.6259 19.4133 26.8098 -12.851 18.8063 26.5058 
-12.6578 18.8226 26.4576 -12.0461 19.3429 26.4257 -11.7384 19.5365 26.4281 
-11.2461 19.5429 26.4859 -10.83 19.493 26.6331 -10.267 19.5439 26.8659 
-10.0312 19.3942 27.0656 -9.85086 19.562 27.0709 -9.4258 19.4972 27.4267 
-9.07596 19.3833 27.8815 -8.65837 19.5409 28.3016 -8.44292 19.5449 28.6848 
-8.29549 19.2448 29.3566 -8.20951 18.8615 30.11 -8.12311 18.7332 30.6875 
-8.1472 18.5509 31.6018 -7.98079 18.9226 31.7443 -8.21883 18.6255 32.3696 
-8.35181 18.3429 32.4316 -8.49938 18.0672 32.6169 -8.65954 17.7441 32.7317 
-18.7677 18.1402 32.7038 -18.8179 18.5422 32.0812 -18.8417 19.1559 31.4451 
-18.4175 19.3498 30.5297 -18.0747 19.7074 30.0477 -17.1906 19.9241 29.2371 
-16.4988 19.7419 28.7051 -16.0808 19.2559 28.4004 -15.6809 18.7132 28.0632 
-15.2842 18.711 27.7804 -14.8301 19.4429 27.4676 -14.4332 19.6691 27.2209 
-13.8531 19.2743 26.9076 -13.2882 19.4796 26.6641 -12.8787 19.2887 26.5255 
-12.4482 18.9972 26.4313 -12.0373 19.6071 26.4244 -11.7702 19.7279 26.4 
-11.2432 19.894 26.4097 -11.0094 19.7852 26.482 -10.8461 19.7429 26.5463 
-10.6542 19.5901 26.6729 -9.67912 19.7788 27.0621 -9.46215 19.747 27.2392 
-9.25575 19.4395 27.6261 -9.03818 19.5349 27.7802 -8.66333 19.7774 28.065 
-8.24895 19.5356 29.0719 -8.2583 18.9468 29.8484 -8.06927 19.0083 30.2361 
-8.03956 18.9651 30.4672 -8.03519 18.8271 31.0892 -7.99425 19.0213 32.1724 
-8.07936 18.8686 32.2375 -8.43313 18.3384 32.648 -8.64112 17.5437 32.659 
-8.75194 17.5401 32.8413 -18.7716 18.3488 32.6296 -18.8756 18.9362 32.4202 
-18.9137 19.1533 31.8617 -18.9389 19.3429 31.6316 -18.8616 19.3358 31.3624 
-18.656 19.1458 30.9751 -18.4039 19.5488 30.4515 -18.2439 19.7478 30.1988 
-17.9373 19.935 29.8467 -17.4999 19.9593 29.4846 -16.9676 20.1443 29.021 
-16.5137 20.0005 28.6946 -16.1666 19.7013 28.4437 -15.6568 19.1255 28.062 
-15.4382 18.7953 27.8856 -15.3669 19.2819 27.8451 -15.0524 19.6437 27.6103 
-14.5208 20.1273 27.27 -14.2364 19.9443 27.1151 -14.0578 19.6468 27.0093 
-13.8478 19.8497 26.9018 -13.4785 19.9264 26.7462 -12.3506 19.4805 26.4324 
-11.4448 19.9688 26.3671 -10.2904 19.9632 26.6591 -10.0617 19.7581 26.8607 
-9.13592 19.8656 27.453 -8.85287 19.7441 27.8346 -8.43977 19.76 28.4553 
-8.22454 19.7455 28.8844 -8.05759 19.5495 29.4951 -8.07134 19.1664 29.9573 
-8.0042 18.8592 31.3992 -7.88189 19.1807 32.0244 -8.0077 19.1281 32.4352 
-8.50036 18.4089 32.8313 -8.61628 18.1023 32.8248 -8.99694 17.7451 33.2326 
-18.7218 18.3403 32.9739 -18.8585 18.8977 32.6392 -18.8378 19.4756 31.213 
-18.7146 19.3429 31.0316 -18.6204 19.5299 30.7686 -17.385 20.1594 29.3349 
-16.7073 20.1288 28.8203 -16.2188 20.0957 28.4497 -15.8917 19.7408 28.2302 
-15.3763 19.7226 27.8255 -15.1112 20.0839 27.6366 -14.8436 20.115 27.461 
-13.2295 19.9189 26.6526 -12.8387 19.7456 26.5218 -12.6491 19.7184 26.4798 
-12.3319 19.7584 26.4285 -11.9175 19.9321 26.3705 -11.6344 20.0029 26.3499 
-11.5792 20.3684 26.2452 -11.0483 20.4844 26.2749 -10.6284 20.0797 26.4935 
-9.84363 20.0641 26.8384 -9.27553 19.9929 27.2621 -8.95838 19.8692 27.6238 
-8.67304 19.9561 27.9136 -8.422 19.9671 28.2991 -8.05441 19.7655 29.2548 
-8.06339 19.3593 29.712 -7.94888 19.4237 29.9562 -7.90738 19.3429 30.2316 
-7.88132 19.1486 31.0018 -7.85173 19.1572 31.3116 -7.85634 19.1591 31.7387 
-7.76532 19.4914 32.2391 -8.17534 18.9236 32.6427 -8.27016 18.92 32.8476 
[...]
CELL_DATA 7921
FIELD FieldData 1
Area 1 7921 double
0.033332281366 0.016620740917 0.043578248401 0.040083238275 0.047478830841 0.02942288477 0.01513083535 0.028205666812 0.045885399372 
0.028664152312 0.05369537232 0.04253575757 0.04491403224 0.022837884322 0.022882135302 0.031608404919 0.043173904765 0.0069183909787 
0.059829107857 0.055458678275 0.056244182914 0.043670460564 0.054446093028 0.042157778107 0.048677297412 0.015700196599 0.028655513904 
0.04671752418 0.016011977837 0.032765231938 0.015766745062 0.023024598376 0.023742584253 0.047311911052 0.061706016242 0.050206967335 
0.066244189003 0.061313539887 0.035802437023 0.028630516669 0.051838135959 0.045166809686 0.051422332024 0.051610248675 0.018015065137 
0.070598878941 0.018695854384 0.029103735014 0.026830581006 0.043974079927 0.044070037638 0.041831381534 0.040371410576 0.027202172644 
0.037515998776 0.034759700117 0.038664393443 0.028880102062 0.048026952109 0.030626727144 0.037398382509 0.025857204774 0.037511990054 
0.035316443048 0.02122613406 0.019241352324 0.044306814538 0.038396399462 0.053816492505 0.062163454528 0.029483921481 0.059170903834 
0.029499568495 0.033410922766 0.031286298867 0.023343390843 0.037159811537 0.038101540048 0.037041086374 0.065542222236 0.082430075086 
0.051863966236 0.018507247458 0.011328862381 0.024294126972 0.029658766965 0.030558055915 0.018939187966 0.1028256058 0.045048073882 
0.044520382621 0.041883236577 0.059211953331 0.056009414079 0.042742608633 0.034060503507 0.030044451802 0.021696665901 0.030339600042 
0.034726198112 0.02452322386 0.019064875431 0.053271817208 0.052897489128 0.05093920924 0.062077032503 0.046210388768 0.032670900623 
0.025493484294 0.034090423582 0.030863905938 0.037308905746 0.028175540107 0.027815071087 0.038566022748 0.051319702177 0.077136908356 
0.11829154834 0.071352199701 0.14861642329 0.03620697339 0.037491321397 0.048264311855 0.038896514357 0.03311023535 0.046394589461 
0.015329626197 0.093590378748 0.017648924496 0.014301511479 0.039342839208 0.022489216041 0.080055620789 0.073199044937 0.078571371494 
0.040184255668 0.036314809499 0.07340422965 0.027349581941 0.031001608319 0.03176083378 0.023774381317 0.038228192641 0.038413757754 
0.055820191055 0.059557520728 0.098179000612 0.034870852849 0.026135659348 0.065941573266 0.058575884236 0.037279957764 0.034545001247 
0.034070947945 0.067491582378 0.068064232578 0.053697185795 0.026809905043 0.021760699689 0.024909588189 0.034493659954 0.013206052468 
0.047192411456 0.055863648304 0.027434248148 0.079083987021 0.12608684794 0.020652821161 0.19392727499 0.030535545223 0.043817697983 
0.036149285367 0.035526848243 0.01782997275 0.05413565679 0.049353054119 0.10093338526 0.054932589268 0.11055228867 0.015272140239 
0.023090809748 0.030703338859 0.019788720225 0.018469981284 0.10361517001 0.098623500499 0.028066629498 0.050189192359 0.020456958207 
0.021020834304 0.028606516513 0.034037879377 0.022768681645 0.026113863632 0.038219162965 0.038588838296 0.029297901445 0.091947156119 
0.11493415764 0.074659783599 0.046911982688 0.083106767795 0.067819724561 0.051058832308 0.032711907028 0.024442423868 0.027390604931 
0.032733212361 0.032907145626 0.043578186324 0.040520093863 0.026334755273 0.01407784046 0.021282699006 0.019883918814 0.021992190114 
0.017418996697 0.043049211818 0.061521410024 0.062236060685 0.029603296093 0.10403681513 0.16343997644 0.10261672955 0.038098873384 
0.13271896358 0.12837308922 0.04462327028 0.061905178157 0.0056001727597 0.012043284478 0.044991728205 0.029428502731 0.047527453121 
0.053215299729 0.064506783746 0.04565336988 0.014623909789 0.0221346676 0.025983047592 0.020744173003 0.049410383658 0.050494259609 
0.081873140475 0.094795549457 0.02943560057 0.061566708081 0.043876570162 0.030788824274 0.03676490942 0.020475473701 0.03773628475 
0.034778845119 0.024578869379 0.023882659281 0.032877971509 0.035565897341 0.056832268759 0.035767701753 0.096319031154 0.10063068364 
0.05310947356 0.075421580969 0.060544172814 0.069783620719 0.035069458771 0.03977505211 0.073810636751 0.042144474897 0.023716175023 
0.027579176818 0.041953461555 0.046486547327 0.023152017458 0.037328645878 0.023280085027 0.024040785239 0.049978754017 0.054308440155 
0.019441209565 0.072073599929 0.055109309644 0.046201722856 0.045045531959 0.0499982166 0.059149340757 0.071697473864 0.081704902797 
0.12995104711 0.12605889053 0.08400857696 0.078908111311 0.030651654682 0.064465639506 0.02720776396 0.0051278632135 0.023844384179 
0.054454292864 0.044358108636 0.066371898103 0.14195649021 0.078750477523 0.086178040578 0.098874425581 0.028381251701 0.02691168884 
0.034879651093 0.014465249512 0.02770138533 0.070495141012 0.031134887519 0.029010376633 0.045855570946 0.041133943199 0.034008728905 
0.0361187102 0.027222781826 0.034749429772 0.050053671697 0.058406044405 0.057474723939 0.071038954991 0.047085147628 0.03244086644 
0.07444456496 0.066515783035 0.1175451318 0.14254995643 0.062628543319 0.047933621556 0.064216805888 0.052961634583 0.058107118554 
0.019150011995 0.033237889974 0.093900367013 0.034899277229 0.032523852165 0.041405861205 0.055741787304 0.035825780881 0.035354097151 
0.025679686994 0.037029103609 0.054613336886 0.076910421832 0.075552321514 0.026778233767 0.030834350999 0.068017759417 0.051952869908 
0.043462669558 0.056287684959 0.054278976497 0.051418468237 0.038946667636 0.042349281363 0.098508099291 0.099589153381 0.096987060429 
0.027792025036 0.030435132793 0.046042684607 0.024736765682 0.032724748508 0.050631227166 0.16509255959 0.071452592329 0.1536062607 
0.075152358184 0.089145260741 0.16034189244 0.17427611144 0.10325921137 0.067086869969 0.01928572396 0.098175480033 0.027291057508 
0.026937143415 0.046988152943 0.028575754689 0.022126801395 0.021111199729 0.020321876175 0.047231962298 0.029919300192 0.05812434056 
0.036927864829 0.062713489108 0.083897156617 0.063825790689 0.077313189402 0.10161580959 0.11426926696 0.029686914233 0.028207279739 
0.054686555414 0.058677476041 0.056966162913 0.059174006103 0.055755830087 0.055545673748 0.034842775428 0.027766662706 0.066872487405 
0.025859684285 0.055160503954 0.068182654825 0.034304913637 0.028157175482 0.032988994582 0.02815171601 0.027636979302 0.03667230235 
0.068621090042 0.099878539061 0.029753095793 0.030336451788 0.066911215845 0.061353942336 0.047876981087 0.036144483086 0.047713565881 
0.04682922797 0.03347140184 0.070109383049 0.038409755238 0.050103118765 0.10440171772 0.10983373866 0.072759687698 0.037986044425 
0.026375225348 0.03485745668 0.034903370688 0.083491876494 0.1140702509 0.054459648905 0.062407299747 0.06205588765 0.084441976676 
0.064373275827 0.103338998 0.10860961535 0.041083719689 0.054687059529 0.074299892663 0.023712047405 0.042858274817 0.028964417982 
0.028148754803 0.037498967583 0.025761843069 0.029684673409 0.03539884889 0.057309660813 0.03836146158 0.037973379601 0.037106420203 
0.03909510278 0.027524060021 0.0448456488 0.053682922434 0.034628139344 0.039731948568 0.057929980311 0.059396880806 0.063467468183 
0.060733272561 0.061742935379 0.066354676379 0.047355747874 0.047206642585 0.050271325983 0.085953827693 0.12103205834 0.05617483145 
0.11334404167 0.054709926059 0.038533448714 0.034544774056 0.024451954101 0.055626788326 0.024712605958 0.021634049287 0.022976373302 
0.099414241976 0.097717667958 0.027250468281 0.028709083299 0.025772867999 0.069421448121 0.032733640743 0.034116260555 0.029973666529 
0.04259156079 0.0412868619 0.057751960902 0.040741652923 0.05388172681 0.051692257276 0.10191198068 0.098782160971 0.09023287225 
0.086017457764 0.030800205357 0.046017815045 0.10128024087 0.064277857928 0.12611453412 0.041753687817 0.07995529921 0.060818704846 
0.07066005252 0.089039216199 0.1204871517 0.048311148149 0.061231624453 0.061362625991 0.063220817424 0.040836971842 0.027792503536 
0.066384507473 0.042317122287 0.043032166033 0.022316502105 0.025598143838 0.033995262063 0.095943536707 0.050368136959 0.043818697141 
0.04916690411 0.040475045996 0.063119721044 0.060764009604 0.026125592782 0.058116000657 0.054858026502 0.057371119872 0.053999610898 
0.050240118284 0.078529214611 0.088781436623 0.042018860013 0.037817380262 0.047621090088 0.063083768895 0.05701979888 0.065482115912 
0.047869438383 0.030865065034 0.046108496113 0.03454083978 0.027311489332 0.042864956003 0.061845525788 0.035996614582 0.060893547329 
0.065703294039 0.06120961677 0.029715452189 0.026121629115 0.033825710525 0.030923334789 0.016264855848 0.053335338054 0.038044613593 
0.048512488803 0.031318885865 0.057418006991 0.043779865009 0.060681504612 0.036911444483 0.035743705668 0.049913809409 0.082667882654 
0.079429126264 0.14810949902 0.11322347975 0.061213044516 0.028393254586 0.048807233799 0.083044623064 0.092821772518 0.051770046557 
0.12609686444 0.065026327085 0.052531888086 0.067151522385 0.096631824183 0.058664175416 0.10249910989 0.10412632837 0.042644121812 
0.042364199496 0.036614692132 0.029032467682 0.036705370951 0.083981472302 0.035390054519 0.055220942304 0.095169888134 0.054501266233 
0.069417387042 0.039570170539 0.041558657888 0.058459753261 0.051960704115 0.037910413864 0.031639502036 0.050057030847 0.056216039107 
0.048889150754 0.056838675599 0.057410188598 0.060887983185 0.040876639673 0.043723994356 0.10612442901 0.053810542051 0.046303942545 
0.038432873705 0.045855224736 0.026481578709 0.068103678734 0.091773482909 0.056980928115 0.039520690825 0.055908565298 0.10931734605 
0.049565081309 0.033026921172 0.052040767463 0.053425757118 0.02966643185 0.054388874279 0.026908596728 0.039293264388 0.030767922837 
0.046253266416 0.035518533947 0.063612654177 0.042973026719 0.087284140013 0.057889427933 0.051420797651 0.046464213846 0.046803689374 
0.044615388962 0.063253979412 0.062125702092 0.069345774907 0.051650442359 0.081759510445 0.07741219732 0.083102434582 0.10771398057 
0.04547956875 0.038629540481 0.056146742599 0.062600276302 0.038573015338 0.095685341585 0.04488432892 0.13607914182 0.044265195756 
0.034065067662 0.05473685031 0.034601117226 0.037110769696 0.10497242779 0.060035850468 0.07759454438 0.038499728768 0.055636441615 
0.069537487971 0.055994825299 0.11164420931 0.094740423729 0.036699838502 0.035331845331 0.038296057638 0.045199866415 0.014254620747 
0.049781223477 0.039582005392 0.066264237245 0.034641007492 0.036480347389 0.052804620823 0.056389717592 0.13079185265 0.056263130338 
0.071488260591 0.057890889485 0.042537563668 0.055713040495 0.038957339134 0.039196769572 0.070845269294 0.063295294244 0.035993059925 
0.051735243069 0.023167265979 0.020897597999 0.033561441178 0.032997859087 0.039039898217 0.023061232348 0.020944978656 0.075864943008 
0.054039000499 0.049862170264 0.044697720711 0.072968948888 0.026118383668 0.040107364 0.033372319253 0.023078745129 0.055929560254 
0.10589406094 0.051159344942 0.089462250123 0.045331601297 0.073114885581 0.061640212821 0.059725616521 0.038457383465 0.11228921346 
0.116904921 0.058777697786 0.048997109478 0.048635697529 0.040183199893 0.053306542463 0.049115801891 0.046191570115 0.066544064818 
0.054607395538 0.034806943763 0.040201542041 0.01907670162 0.02928038506 0.028501527817 0.048114349161 0.029082573356 0.054345613778 
0.076978049526 0.040375436446 0.041147608413 0.03892760244 0.026882112863 0.070887538354 0.042288112198 0.068386372619 0.026702023339 
0.039168904572 0.042153506772 0.055837926071 0.04358007967 0.014332185882 0.032123148083 0.034082052677 0.041869850047 0.058004855685 
0.073366818521 0.026073786331 0.031669501194 0.11357636411 0.067874693369 0.093151421047 0.078989426986 0.026893348334 0.039429833762 
0.030363015702 0.057486744226 0.025383258329 0.030482089069 0.043578062126 0.020074445024 0.044949690776 0.052234041791 0.03148440476 
0.04672556711 0.02737788637 0.067769275243 0.045187694398 0.036451731975 0.033196425301 0.05570324105 0.079676581199 0.048878749124 
0.06646843733 0.054588158887 0.031605169751 0.048745204302 0.061315232564 0.073372437735 0.043072271558 0.039312745352 0.072033087528 
0.052743268635 0.077571787119 0.053977073617 0.085245891727 0.043999262891 0.052692058103 0.049413902467 0.078826772132 0.050774943809 
0.033202082621 0.044345626677 0.050806279666 0.040840297855 0.030257138065 0.030431496874 0.046701067083 0.029314583357 0.058206349447 
0.029035161501 0.034697560453 0.053237542532 0.034664552007 0.050271429065 0.079631349178 0.03155787474 0.070710118027 0.026061480989 
0.059669830921 0.041204455195 0.051993208229 0.016960144661 0.0435826508 0.020129073051 0.030917845988 0.028098830711 0.021514127363 
0.022633648145 0.020877858199 0.020981526961 0.032549938187 0.036199081568 0.017328235135 0.046045400286 0.031611898911 0.047883466304 
0.08741088108 0.088503834292 0.071116787936 0.039660189352 0.035836949894 0.051076345669 0.050640993564 0.044085466799 0.028286890172 
0.02581143254 0.053699898913 0.035060639657 0.048396300229 0.045262459948 0.025996453277 0.031114826953 0.042294070673 0.080580328916 
0.047736992035 0.058157630451 0.05355014665 0.049002627399 0.052309935993 0.049379759507 0.057258558329 0.03537224217 0.052763132202 
0.059163018816 0.043130023804 0.05651297226 0.076271210863 0.060906699022 0.048279150952 0.10925761845 0.041026776055 0.061353345198 
0.045690257759 0.0347299245 0.065602142576 0.075563099848 0.099750957099 0.044479021703 0.046352090294 0.057328679981 0.026071403947 
0.05345753577 0.047393869388 0.043869853267 0.066273104875 0.060330725368 0.044748204293 0.043693615096 0.028608150347 0.049603102152 
0.043866083759 0.095757474802 0.044194901587 0.045076297187 0.066876087639 0.076749874386 0.037889598436 0.025094062152 0.046666991224 
0.067904934478 0.025627586633 0.02335052597 0.013627962107 0.025354907021 0.023918774844 0.020100776483 0.02397027215 0.028727195647 
0.023171607892 0.024352446376 0.015076571723 0.025136319255 0.019550959344 0.021764770136 0.024279055311 0.024952921193 0.049471566345 
0.039385770067 0.037286935166 0.055314722219 0.04982713264 0.04019928252 0.028500060989 0.05365287621 0.02618642961 0.032104731841 
0.06128399373 0.066633428773 0.058379001675 0.043578336844 0.060190674434 0.045294540705 0.027425928294 0.027499686078 0.042374648163 
0.043708267031 0.052515246203 0.016502243972 0.071173869615 0.065708987228 0.059979367487 0.061400774293 0.053214740184 0.055349427 
0.046016827274 0.10757849628 0.024315662635 0.026846459079 0.10071491464 0.0099043356159 0.066898806518 0.042130037171 0.042098135748 
0.041393476965 0.066734664926 0.10810408683 0.037788857453 0.086188870754 0.032315056751 0.068959786204 0.072178241258 0.054113182785 
0.07414509232 0.077396784335 0.052368402683 0.06790991 0.051560513024 0.053009680336 0.061192081161 0.040793664167 0.037864039902 
0.040000256899 0.029151401927 0.042298405834 0.10345294067 0.05691593168 0.044360025764 0.0443857751 0.043122072651 0.071636858398 
0.026895661852 0.049101713639 0.067550316018 0.059670573552 0.018572838203 0.039323151065 0.051467898183 0.11033045366 0.12143785014 
0.042030911353 0.038403163114 0.058137975679 0.067596538348 0.056494718836 0.039263233921 0.043886047903 0.051480711637 0.0099703686467 
0.036599704137 0.00678286617 0.00714300528 0.023642767649 0.026224352547 0.021930798884 0.035584780535 0.031547679122 0.029411035468 
0.045241414039 0.025350278431 0.026543918238 0.042584566562 0.054494589568 0.058663338409 0.042964306536 0.03683113923 0.050370705158 
0.053549844495 0.032372137771 0.03612129544 0.045025314568 0.038134443163 0.058599944188 0.067824470078 0.053865305773 0.016089602433 
0.025865610325 0.031110504423 0.031072176275 0.04358147386 0.051841552412 0.11485773815 0.073457043514 0.056490331338 0.035972586676 
0.026704898121 0.022906152705 0.026972029133 0.010618713352 0.030372571518 0.030840545272 0.0275065466 0.032203442011 0.021007608019 
0.024419619128 0.050100814116 0.021854816292 0.010031033148 0.018704723448 0.024885705346 0.038839270279 0.035706966381 0.065631907948 
0.086763917464 0.034903698506 0.039862607366 0.072376200362 0.062904270258 0.036822267366 0.061904693948 0.049141433068 0.054273148943 
0.03476689866 0.065788388594 0.14985547736 0.024998798712 0.041071610143 0.044964878501 0.021742567957 0.031632598487 0.018345274042 
0.019947590913 0.021409296947 0.030474978721 0.030453149383 0.079927196773 0.055636644723 0.054704648511 0.048692281978 0.061185345726 
0.1044948237 0.049043491169 0.028510641729 0.04646874043 0.073230987506 0.057886203899 0.067660083861 0.063202682376 0.028207374687 
0.029355605211 0.076260889954 0.041607768154 0.02294024441 0.051180936303 0.055464755057 0.063999495514 0.089480664974 0.043417844736 
0.023018269241 0.026368923829 0.042147632862 0.032319388403 0.035530307742 0.065873381476 0.048204701171 0.058929146495 0.037181724474 
0.049366399649 0.033377642478 0.033485721472 0.036409839173 0.027669567276 0.038534727051 0.083853220271 0.087384697766 0.042950648486 
0.073318393977 0.044280487115 0.043077192282 0.035563206851 0.038025321486 0.053043451073 0.033428752174 0.039762705049 0.075211806837 
0.15560102776 0.049268734832 0.036960467923 0.029514463611 0.044487945001 0.038666229541 0.031385954343 0.019976453519 0.025697768465 
0.039070693021 0.044781695097 0.046187762328 0.033159979063 0.035501510717 0.037954007073 0.035075745304 0.02590829601 0.020372187165 
0.019321432375 0.028730461874 0.03912884818 0.022381558857 0.076899193268 0.023600200136 0.033464380947 0.03811252531 0.067992519315 
0.036732543548 0.02585780734 0.028195979677 0.036597663768 0.046892913785 0.044098226021 0.018589066398 0.017066871394 0.041076160753 
0.043974326962 0.021849125522 0.030155382929 0.029143853579 0.029601223614 0.025265299516 0.034790790789 0.028506150624 0.045339860829 
0.032852421798 0.083820100498 0.062720077431 0.029111719904 0.024664661895 0.021801159945 0.028338330606 0.030391122729 0.034226146282 
0.038671250615 0.024477405631 0.031999947459 0.014726070732 0.0064895880071 0.016204526815 0.021033865855 0.024857322658 0.11062287145 
0.071152404559 0.090156014618 0.024285754489 0.045953238476 0.035480499299 0.075043093763 0.053535038933 0.033144194099 0.036357808293 
0.07584135265 0.081465346779 0.050728662879 0.037921776175 0.037054754382 0.019430839844 0.046635903238 0.046265829254 0.041353132023 
0.046763920817 0.025630666886 0.02858182039 0.027386564823 0.031100443565 0.027694920352 0.015228421682 0.033807818557 0.02470894502 
0.024788201526 0.021842491551 0.016236126337 0.026443315189 0.014944949045 0.023310437908 0.016696424444 0.025963214629 0.024516533284 
0.0184953763 0.028581714946 0.035576210478 0.031557852363 0.03667269657 0.024525198671 0.030400348836 0.04700736862 0.037638334898 
0.064099471707 0.071906718952 0.060067930014 0.055005326242 0.050387443953 0.043621778907 0.061080282131 0.098211171364 0.12096992797 
0.085991449224 0.064009520672 0.026944692714 0.044205511227 0.070739196271 0.10413383199 0.026120503166 0.017393442979 0.020290712613 
0.012567385675 0.021374532709 0.020199549437 0.0094422386393 0.012946102138 0.029492246026 0.021285821859 0.039841789701 0.023775739821 
0.018990695509 0.032603852612 0.03601984651 0.02592330786 0.029550823668 0.039407829297 0.091870086373 0.050333589244 0.088229934335 
0.090814125085 0.093201156866 0.045147243993 0.10558253976 0.058174951828 0.07993385816 0.057642257029 0.025477210519 0.03191029292 
0.05657637868 0.03712900317 0.036620973914 0.026045517835 0.031220737465 0.030041118044 0.0491214105 0.022809695307 0.034123230684 
0.0039598415863 0.029210062454 0.018419031036 0.019426989836 0.01992231172 0.025796305139 0.04613081237 0.064794336695 0.071165486558 
0.064243773249 0.074994831595 0.014793311928 0.01353527914 0.026682786457 0.078845574907 0.086903291342 0.11513279142 0.025582534713 
0.029876365678 0.016348446657 0.046526546938 0.13857236785 0.083954698164 0.073753538077 0.059602396167 0.064774465638 0.065979148052 
0.026825539648 0.02605705644 0.034584590084 0.072781002229 0.041759756758 0.037028559085 0.041804271708 0.035155624047 0.03279442568 