# vtk DataFile Version 4.2
vtk output
ASCII
DATASET POLYDATA
POINTS 4318 float
-17.3153 18.5338 29.6826 -17.2704 18.3347 29.6476 -17.6544 18.3423 30.0022 
-17.1071 18.3369 29.488 -16.8944 18.3373 29.3089 -17.028 18.1329 29.3332 
-16.8612 18.134 29.229 -16.6639 18.2594 29.1204 -16.6827 18.142 29.0939 
-17.8178 18.5453 30.1536 -17.9816 18.3365 30.3078 -17.4442 18.7974 29.7699 
-16.9636 18.5217 29.3541 -18.2507 18.3309 30.6498 -18.2521 18.1326 30.5506 
-18.0352 18.5333 30.3641 -17.7528 18.9518 30.0468 -17.1994 18.7356 29.5403 
-16.5889 18.5402 29.0379 -16.4699 18.2702 28.9305 -14.6655 18.3283 27.593 
-14.5339 18.1349 27.5131 -14.6612 18.134 27.5697 -18.0536 18.9845 30.3485 
-17.4526 19.2514 29.733 -17.2528 19.0571 29.5664 -16.9684 18.8135 29.3219 
-16.2236 18.5408 28.7287 -16.2518 18.3372 28.7375 -16.2612 18.2215 28.713 
-16.0612 18.334 28.6078 -14.8612 18.2142 27.713 -14.487 18.3287 27.4953 
-14.2512 18.3393 27.3548 -14.2251 18.1323 27.3197 -14.0612 18.134 27.2389 
-13.8378 18.3354 27.122 -13.8428 18.1015 27.112 -13.6612 18.134 27.0222 
-18.6612 18.1826 31.513 -18.6653 18.3386 31.6843 -18.5694 18.3336 31.3229 
-18.5041 18.7119 31.0823 -18.462 18.3357 31.0312 -18.2586 18.5371 30.6435 
-18.1709 18.6018 30.5188 -17.7461 19.5137 29.9886 -16.2719 18.9066 28.7371 
-15.9533 18.5782 28.5245 -15.8773 18.3377 28.4816 -15.6595 18.2739 28.3206 
-15.6493 18.5627 28.3016 -15.4612 18.334 28.1985 -15.058 18.3334 27.8855 
-15.0612 18.134 27.8056 -14.8537 18.3502 27.7182 -14.6564 19.0632 27.5191 
-13.6544 18.45 27.0256 -13.4569 18.3987 26.9475 -13.4527 18.1008 26.9156 
-13.3732 18.3332 26.9147 -13.2612 18.134 26.849 -13.0638 18.3407 26.7816 
-13.0612 18.134 26.7722 -18.6525 18.5804 31.5108 -18.5892 18.5639 31.3204 
-18.4198 18.6493 30.9197 -18.2327 19.0815 30.5634 -18.0619 19.504 30.3035 
-17.5092 19.7348 29.7306 -17.2412 19.3384 29.5276 -17.0423 19.2653 29.3386 
-16.6207 19.0034 29.0216 -15.418 18.5469 28.1304 -15.2958 18.3345 28.091 
-15.4374 18.1302 28.1373 -15.2244 18.1312 27.9448 -14.9308 18.8703 27.7217 
-14.3206 19.0663 27.3155 -14.1745 18.613 27.2692 -14.0421 18.759 27.1836 
-12.8812 18.1341 26.7133 -12.6402 18.4115 26.6292 -12.6612 18.134 26.6348 
-12.4549 18.1384 26.5765 -11.8969 18.1339 26.5338 -11.8935 18.0278 26.5109 
-12.2612 18.134 26.5473 -11.6612 18.134 26.5559 -11.6476 18.4813 26.5659 
-11.4612 18.134 26.6033 -11.4955 18.3814 26.5937 -11.2612 18.134 26.6561 
-18.7324 18.5416 31.9294 -18.712 18.3316 31.9272 -18.7425 18.3381 32.4783 
-18.7757 19.1177 31.7291 -18.6684 19.2872 31.2654 -18.4679 19.0853 30.9188 
-18.2739 18.9118 30.6529 -18.2166 19.2068 30.5191 -17.7478 19.7411 29.9518 
-16.8069 19.447 29.1513 -16.4757 19.3433 28.899 -16.0123 18.8872 28.5367 
-15.6205 19.1334 28.2198 -15.2987 18.7913 27.9996 -15.1389 18.5935 27.9135 
-15.0006 19.1731 27.7576 -14.6687 19.5139 27.5261 -13.6636 18.849 27.0081 
-13.351 18.6268 26.9067 -12.4566 18.7642 26.5819 -12.2553 18.7159 26.5561 
-12.0624 18.7278 26.5427 -11.8772 18.5745 26.5405 -11.0755 18.3336 26.7104 
-11.0661 18.1005 26.7154 -18.7239 18.5383 32.843 -18.7129 18.3349 32.7865 
-18.7548 18.542 32.4898 -18.7176 19.1067 31.5131 -18.6044 19.2562 31.1127 
-18.4225 19.4607 30.7372 -18.2659 19.528 30.5136 -18.1166 19.7273 30.3022 
-17.5681 19.9137 29.7506 -17.3139 19.9032 29.5321 -17.0649 19.6404 29.3521 
-16.2444 19.1327 28.7152 -15.1537 18.8327 27.8907 -14.295 19.4431 27.2965 
-13.9664 19.1477 27.1324 -13.4431 19.054 26.9203 -13.0699 18.7307 26.7737 
-12.8452 18.6834 26.6902 -12.704 18.9679 26.6363 -11.6684 19.1121 26.5559 
-11.4605 18.9304 26.5826 -11.2555 18.7765 26.6304 -10.8612 18.334 26.8256 
-10.8612 18.134 26.829 -18.6625 18.3363 33.1324 -18.8088 18.97 32.1983 
-18.8026 19.0748 31.9227 -18.7889 19.3284 31.6083 -18.6334 19.5382 31.0746 
-18.301 19.7402 30.4812 -17.8226 19.914 29.9591 -16.736 19.7457 29.072 
-16.4995 19.8982 28.8811 -16.2607 19.4536 28.7268 -16.0138 19.2573 28.5083 
-15.8353 19.305 28.3571 -15.2601 19.1473 27.9407 -14.9073 19.5265 27.6855 
-14.3341 19.827 27.3209 -13.6641 19.2782 26.9999 -13.0645 19.0861 26.7527 
-12.6729 19.7194 26.6326 -12.2573 19.534 26.5686 -11.8455 19.5148 26.5518 
-11.0203 19.0057 26.6962 -10.8678 18.5672 26.7959 -10.7014 18.3375 26.9481 
-18.7208 18.7203 33.065 -18.7884 18.8929 32.7132 -18.8052 18.9307 32.5122 
-18.7412 19.534 31.313 -18.2726 20.0809 30.2944 -17.6578 20.1892 29.7213 
-17.3616 20.1141 29.5207 -16.8867 19.9287 29.1749 -15.5521 19.2916 28.1522 
-14.6844 19.9134 27.5207 -14.1115 19.6679 27.2052 -13.9412 19.3349 27.1092 
-13.6634 19.6479 26.9864 -13.0816 19.2972 26.7556 -12.8509 19.4917 26.6792 
-12.3544 19.7346 26.5724 -11.5918 19.5288 26.5596 -11.4136 19.3142 26.5953 
-10.7472 18.134 26.913 -18.6612 18.1781 33.313 -18.6255 18.334 33.313 
-18.6651 18.6681 33.3171 -18.8224 19.1306 32.594 -18.8536 19.271 32.0874 
-18.8871 19.4623 31.9333 -18.6616 19.7403 31.008 -18.4625 19.7136 30.7062 
-18.4683 20.0778 30.5036 -17.9325 20.1286 29.9683 -16.2429 19.8301 28.6893 
-16.0234 19.7094 28.5173 -15.7862 19.6549 28.3083 -15.3785 19.5701 28.0113 
-15.0673 19.9238 27.7646 -14.6915 20.1139 27.5195 -13.906 19.925 27.1044 
-13.8409 19.6003 27.0753 -13.52 19.7881 26.9202 -12.9681 19.9408 26.7082 
-12.6008 19.9439 26.5966 -11.9529 19.733 26.5436 -10.955 19.3158 26.7146 
-10.6898 18.5763 26.9208 -10.6612 18.134 26.9883 -18.6876 19.1336 33.4152 
-18.7659 19.1081 33.0551 -18.8651 19.3198 32.3539 -18.8946 19.6094 31.6936 
-18.8541 19.6384 31.5117 -18.8499 19.7802 31.3338 -18.4427 20.3693 30.3123 
-18.2416 20.4418 30.0892 -17.7708 20.3411 29.7359 -17.0434 20.1452 29.2571 
-16.605 20.1323 28.9361 -16.1652 20.1489 28.5762 -15.6375 19.6475 28.1852 
-14.433 20.1376 27.3626 -13.6314 20.1538 26.9454 -13.0266 19.6947 26.7279 
-12.2648 19.9786 26.5294 -11.5777 19.7453 26.5438 -11.1263 19.5277 26.6415 
-10.8612 19.134 26.768 -10.6614 18.9584 26.9129 -10.4712 18.3482 27.1703 
-10.5437 18.134 27.113 -18.6017 18.6652 33.5422 -18.5701 18.334 33.513 
-18.6253 18.8632 33.532 -18.8375 19.3461 32.8725 -18.9283 19.5301 32.1873 
-19.0425 19.8862 31.8869 -18.8633 20.0053 31.1382 -18.5845 19.9242 30.7608 
-18.6325 20.3806 30.5174 -17.4308 20.4929 29.4247 -17.2145 20.3042 29.342 
-15.8545 19.9336 28.3447 -15.5883 19.9745 28.1429 -15.2998 20.0887 27.9141 
-15.0672 20.2544 27.7519 -14.7479 20.3342 27.5392 -13.9679 20.1264 27.1257 
-13.2475 19.9869 26.8017 -12.9005 20.1808 26.6565 -12.3085 20.2912 26.4572 
-12.0269 19.9388 26.5145 -11.6558 19.9202 26.5082 -11.1513 19.7092 26.5903 
-10.8609 19.53 26.713 -10.5386 19.3103 26.925 -10.4276 18.9307 27.1055 
-10.459 18.671 27.1152 -18.4349 18.3313 33.8602 -18.4855 19.1789 34.0494 
-18.7694 19.3511 33.2685 -18.9135 19.571 32.6649 -19.0698 20.0326 31.6976 
-18.9843 19.934 31.513 -18.9864 20.1868 31.2441 -18.7307 20.3192 30.6848 
-18.607 20.7389 30.3103 -17.6825 20.5568 29.5724 -16.9199 20.3445 29.12 
-16.5471 20.3527 28.8318 -15.8629 20.2684 28.3194 -14.4347 20.3376 27.3398 
-13.9625 20.356 27.0803 -13.5867 20.3254 26.8895 -12.6596 20.2084 26.5619 
-12.0603 20.173 26.457 -11.3301 19.9396 26.5175 -10.8852 19.8306 26.6115 
-10.6299 19.5584 26.8017 -10.5593 19.1652 26.9519 -10.2205 18.7252 27.3365 
-10.4612 18.134 27.2042 -18.464 18.7535 33.9415 -18.5917 19.3589 33.8577 
-18.8007 19.334 33.113 -18.9133 19.6647 32.9078 -19.0549 19.8722 32.3104 
-19.0576 19.8744 32.1225 -19.1651 20.2706 31.8987 -18.8561 20.274 30.9072 
-18.8557 20.546 30.7263 -18.8413 20.7332 30.6027 -18.2429 20.738 29.9747 
-18.0262 20.9413 29.7328 -17.427 20.8732 29.2654 -17.054 20.5519 29.1475 
-16.1314 20.3312 28.5173 -15.6154 20.1962 28.1471 -15.3817 20.3536 27.9519 
-15.0728 20.4955 27.711 -14.6304 20.5239 27.4045 -13.2043 20.3885 26.7123 
-12.8379 20.5839 26.5053 -12.2802 20.5547 26.3626 -11.7893 20.1264 26.4562 
-11.2854 20.1644 26.4572 -11.0409 20.1777 26.4798 -10.6541 19.7944 26.7018 
-10.2527 19.5409 26.9931 -10.2987 19.1276 27.1494 -10.2241 18.9353 27.2815 
-10.1084 18.3396 27.551 -10.3644 18.134 27.313 -18.3919 18.6847 34.0857 
-18.2291 18.3324 34.3051 -18.3989 19.329 34.298 -18.7011 19.6599 33.7537 
-18.9085 19.775 33.1232 -19.0468 19.9964 32.7624 -19.0738 19.9884 32.5381 
-19.1772 20.4058 31.7154 -19.0748 20.1855 31.5046 -18.9796 20.6295 30.905 
-18.8377 20.9396 30.5226 -18.4303 20.9314 30.1044 -17.736 20.9324 29.4818 
-17.2711 20.9115 29.1372 -16.7728 20.483 28.9538 -16.2757 20.5625 28.5569 
-16.0022 20.5375 28.366 -14.3141 20.5697 27.201 -13.8358 20.5272 26.9518 
-13.2808 20.5362 26.7042 -13.0612 20.534 26.6125 -12.0762 20.7878 26.2523 
-10.8864 20.2215 26.4928 -10.6112 20.2512 26.5471 -10.4092 19.7383 26.8326 
-10.2322 19.3128 27.1106 -10.0239 18.9358 27.4595 -10.0555 18.7313 27.51 
-10.1777 18.134 27.513 -10.2612 18.134 27.426 -18.2407 18.8057 34.4392 
-18.4857 19.551 34.223 -18.6041 19.7921 34.1315 -18.8155 19.8761 33.6003 
-18.9415 20.0644 33.3158 -19.1705 20.2995 32.3946 -19.2001 20.3754 32.1386 
-19.259 20.7112 31.9298 -19.0857 20.4957 31.2628 -19.0593 20.593 31.1182 
-18.9533 21.0031 30.6929 -18.6808 20.9962 30.3241 -18.2401 20.9844 29.9041 
-17.8587 21.1606 29.5205 -17.6482 21.1338 29.3559 -17.2671 21.1473 29.0583 
-16.9487 20.8828 28.9236 -15.664 20.5281 28.1127 -15.3559 20.5428 27.9009 
-14.9983 20.757 27.5714 -14.6821 20.8745 27.3152 -13.5067 20.6819 26.7462 
-13.0553 20.7411 26.5164 -12.5376 20.8586 26.31 -12.2609 21.1715 26.1532 
-11.8677 20.8565 26.2173 -11.6525 20.6645 26.2778 -11.0581 20.6507 26.3295 
-10.8691 20.6597 26.3653 -10.3322 20.0542 26.7201 -10.0237 20.09 26.8458 
-9.79466 19.6589 27.1492 -10.0612 19.334 27.1886 -10.0615 19.1346 27.3131 
-9.86318 18.7975 27.7233 -10.0382 18.1404 27.6714 -18.1259 18.3243 34.5161 
-18.2485 19.548 34.7031 -18.8114 20.1967 33.8436 -19.0361 20.1653 33.0685 
-19.1621 20.4258 32.7168 -19.2366 20.734 31.713 -19.1805 20.6164 31.5265 
-19.0607 21.0076 30.9047 -18.8666 21.2276 30.5103 -18.483 21.3631 30.0784 
-18.026 21.1479 29.6817 -16.5828 20.8155 28.6758 -16.0509 20.7638 28.3189 
-15.7489 20.7598 28.0902 -14.4366 20.9216 27.1335 -13.9891 20.7777 26.928 
[...]
CELL_DATA 8500
FIELD FieldData 1
Area 1 8500 double
0.051840679963 0.022817112112 0.029913860006 0.020624839617 0.013644835272 0.046097473539 0.07636782356 0.045663246473 0.025697550727 
0.028011493405 0.0454327034 0.030233717262 0.057713635172 0.11862758077 0.039692700671 0.050015860118 0.024293275737 0.037520685765 
0.013603873128 0.043045824467 0.068378141029 0.088802272873 0.09583211313 0.052270153288 0.045861539277 0.067900231052 0.064682997008 
0.017549703594 0.013647790694 0.023307700769 0.019712632031 0.037775612677 0.01903091258 0.029578039771 0.023715967718 0.029697012036 
0.058641320906 0.045005793188 0.033169423757 0.046485185155 0.12070777509 0.11538862296 0.060958722695 0.053400769463 0.071665671251 
0.087742841049 0.02880361041 0.023528197131 0.02699186431 0.029838160063 0.033096048507 0.024764733506 0.015445707578 0.075004085978 
0.026354036812 0.048296668742 0.032482170277 0.034720017179 0.022462125334 0.022152622405 0.046030125317 0.029571604648 0.032460690114 
0.056822302817 0.015729128188 0.063565961254 0.11601161842 0.089153952797 0.040036368985 0.077006067868 0.10798096166 0.10383574096 
0.062892162732 0.038813281629 0.054615971806 0.031495161699 0.02047155146 0.022484830712 0.017979191941 0.058233755627 0.12085860755 
0.14509275562 0.037276211576 0.065720227153 0.056081928374 0.033686911547 0.012981924344 0.034130366834 0.019584853998 0.032407382484 
0.029707040497 0.019779294912 0.012854109735 0.035694846335 0.025588779719 0.058222339291 0.026120339571 0.075848635264 0.023155798271 
0.090602554862 0.039500257212 0.059029151086 0.029116807733 0.029517838261 0.019810389612 0.064534099425 0.050963680439 0.037357254642 
0.073207952201 0.039981638566 0.074398676349 0.12346822469 0.085698175749 0.050319305813 0.10851287227 0.036867429255 0.021237429842 
0.030519046428 0.033411854294 0.035230965924 0.082352224565 0.059170843076 0.088535555849 0.1087222591 0.048766163383 0.083405899311 
0.042380414651 0.013971177545 0.049346604763 0.053411935253 0.059873884958 0.056994062873 0.10824776627 0.052157909133 0.04079977883 
0.017363864748 0.048128797985 0.023596248678 0.03168171799 0.057279379578 0.092921416258 0.059168648438 0.07336709509 0.044525978835 
0.058248358543 0.069745250769 0.036504135627 0.02455259966 0.04702734023 0.057923469943 0.029214426904 0.083564202072 0.050518795425 
0.058786327264 0.080615941521 0.037104366396 0.037415852772 0.084807645773 0.1239402041 0.039494216029 0.041097045794 0.041123133961 
0.033632029843 0.04384625837 0.093599099096 0.083736202956 0.04672225747 0.077090385075 0.07548007003 0.03470554687 0.060775740126 
0.068807598102 0.063985929495 0.063447230534 0.056237437554 0.042332228397 0.071837158851 0.044091721476 0.092099387158 0.02835128906 
0.023454995066 0.035667897426 0.036249325934 0.12148706838 0.052640753968 0.024699972792 0.068506117962 0.023970204758 0.035317708221 
0.081413307113 0.045057775032 0.031836145018 0.028901385389 0.045912762582 0.029242295243 0.029932271079 0.079074566161 0.059051530618 
0.11523629531 0.045301432449 0.05635045165 0.07484452763 0.080863155283 0.021804289499 0.051564403594 0.05147384557 0.082541078282 
0.073833011671 0.073824673117 0.070666759907 0.05067134856 0.090048833043 0.05461040808 0.04668530068 0.050945264599 0.098363176322 
0.082932531974 0.079122208245 0.089521973594 0.089756905208 0.064124082936 0.060260671216 0.076570542815 0.028494041148 0.02014482699 
0.049523429582 0.063322074081 0.061947152458 0.073961395206 0.018316985438 0.038524731159 0.03301107912 0.082408238608 0.029499072256 
0.047112916877 0.093802479289 0.047162451894 0.035822645108 0.077339261201 0.049279731044 0.037496154831 0.076949758856 0.050954438272 
0.042956996787 0.028396332244 0.035487312138 0.031005088576 0.054613180866 0.057292860988 0.08011198674 0.044502385001 0.039304220012 
0.028848727845 0.044038837519 0.043983932634 0.042938930073 0.062820556931 0.065586933751 0.15651568091 0.057415268783 0.16428792611 
0.052351715825 0.044603594493 0.04413506473 0.084192782535 0.070342909965 0.023598359463 0.014404568269 0.014729014513 0.047855799578 
0.05204540196 0.039889203798 0.033105884637 0.036406942271 0.06503785564 0.044494833627 0.027234999035 0.051538471614 0.035691846372 
0.050900967859 0.055116230837 0.044101185051 0.049039874388 0.060110013388 0.041748265502 0.061644061717 0.073259156634 0.053189980687 
0.06163827081 0.066350732567 0.11813138371 0.089357338288 0.040188768106 0.050450251198 0.056106564878 0.042535094767 0.036562464113 
0.062926141452 0.15451443941 0.027318769586 0.09016430205 0.055042388539 0.035984653229 0.040309151644 0.044023658612 0.028454712566 
0.046041948114 0.073410453685 0.042694442988 0.026189635814 0.011633200161 0.030993014242 0.062722285133 0.068421276812 0.021806931743 
0.05763233952 0.043316042504 0.031638344912 0.042535065166 0.040321302382 0.047579267923 0.038640420325 0.051208822399 0.044486786121 
0.086484599188 0.033180025063 0.025151288639 0.04801488452 0.055303698174 0.055984522712 0.054806093945 0.057197394622 0.034141291758 
0.052149326135 0.11019602172 0.045491975186 0.048291082505 0.079792372918 0.046331332022 0.04343699375 0.033937120556 0.036772404469 
0.10813051882 0.042399962452 0.028696225927 0.043054686112 0.0403484663 0.049726284414 0.040644984379 0.05062530814 0.050756588202 
0.030004623214 0.04154783984 0.03851410537 0.017428052626 0.034592361038 0.039314052 0.042271570823 0.072123599469 0.054018222013 
0.052893022649 0.033435847111 0.030582320237 0.051785848603 0.028851321639 0.026581877468 0.050085096328 0.03880694587 0.040010958434 
0.044427064519 0.051075363514 0.080581180041 0.090829833683 0.036878935943 0.058111297819 0.067835461479 0.07639315402 0.045942512996 
0.042091999523 0.031800513978 0.053504965949 0.081704928308 0.073543992749 0.034057392734 0.05225007509 0.018217747983 0.096013051579 
0.06558597695 0.066575854477 0.037676678108 0.046315298312 0.055755486682 0.023442321948 0.033943551621 0.046812106581 0.04424597122 
0.029557788198 0.04213501457 0.069115319768 0.058233182856 0.050577306266 0.033797998553 0.062179492201 0.023237718635 0.093299842148 
0.043070950686 0.05434663402 0.063448351502 0.055466657193 0.059259849027 0.044213752063 0.030423241783 0.030451505901 0.034680742636 
0.056788177459 0.061066957152 0.035081084893 0.053792707099 0.062423971163 0.075637238354 0.039291969256 0.044414363021 0.033740802285 
0.056241801741 0.062977017949 0.066015368859 0.048162923358 0.088653334198 0.046298449402 0.044663510924 0.037289499255 0.052516775421 
0.044064659477 0.04111236493 0.037452276287 0.035508326947 0.051238476683 0.037562907491 0.02825315 0.037921731445 0.029760543653 
0.047455958716 0.02696591156 0.043258171393 0.025637470257 0.05971926238 0.026285104287 0.035051967157 0.033178407022 0.038588382681 
0.053894983245 0.013199200866 0.086995637821 0.042779934796 0.099619866 0.066325480136 0.06845645383 0.017868517578 0.028282575723 
0.038335805514 0.08524417486 0.043257713712 0.039242842588 0.043086511101 0.049931539428 0.041540425776 0.077375442415 0.054886033022 
0.026551520537 0.069688734086 0.076332455653 0.17295416875 0.061597929978 0.052740850782 0.042181167563 0.052680654411 0.048657555624 
0.032679626006 0.050906966105 0.037596910018 0.053939452706 0.045005456944 0.046107399591 0.036177875553 0.062421163195 0.037690446709 
0.083292737791 0.069717587087 0.052873374249 0.048566623667 0.036757139331 0.031959967386 0.038389729563 0.037568784164 0.056506947518 
0.059022160256 0.03777403508 0.031811220759 0.053295481186 0.024375625417 0.035322067827 0.035088422421 0.035807603446 0.10192812704 
0.015636823909 0.087560606839 0.036485481648 0.037736402759 0.040291014176 0.095948778809 0.036119042076 0.040108693367 0.050204954295 
0.058475482184 0.03446163756 0.047696923928 0.037110755886 0.025953269999 0.036675652765 0.069486305453 0.033197499494 0.039050354093 
0.039477514712 0.048424978461 0.042201490574 0.07481338024 0.073857413219 0.038454523612 0.09472853222 0.032440832111 0.033207439212 
0.060537603458 0.041216675491 0.036047641298 0.035690886024 0.046356272354 0.050022149587 0.040793712352 0.063308655026 0.040522999231 
0.034273697323 0.041217070044 0.048877609566 0.10953812654 0.068881496025 0.087596249483 0.056044907058 0.0284428502 0.031986236071 
0.059828241525 0.032690973505 0.042713075497 0.043995435105 0.035276503243 0.027079604337 0.028623001372 0.047538623478 0.054756617195 
0.016437846632 0.084775390566 0.070876150089 0.053153259124 0.069158596432 0.083242259585 0.065168162296 0.048850060389 0.046650821483 
0.050441727269 0.045539227035 0.041715089555 0.061616692968 0.043530141835 0.039470000244 0.04420589466 0.046383758304 0.037740880017 
0.02586153297 0.023846043197 0.034742159558 0.041290034633 0.033275521768 0.035542360137 0.04432321245 0.04343378569 0.023570837315 
0.07148829253 0.067461801358 0.053489156804 0.037758009355 0.071062039051 0.024963894459 0.033765611468 0.071109644686 0.068648158751 
0.052008017458 0.060352501736 0.051538091783 0.018052206407 0.026683878487 0.090268454865 0.064699832085 0.083173885527 0.14043921912 
0.061041801651 0.035366889507 0.057577323813 0.076457028389 0.048254673069 0.077885181051 0.06409213888 0.017945667395 0.029777974573 
0.028963393725 0.025474361236 0.056947716527 0.021655133536 0.013001773988 0.056638380802 0.1136775449 0.060462723473 0.060460525355 
0.10416843664 0.055930057349 0.11313370916 0.048874179704 0.068380763977 0.050275810103 0.061485862232 0.067342983675 0.052413817061 
0.036406885537 0.045366703046 0.058673389223 0.025843996444 0.044407809984 0.052756619374 0.029639960083 0.036878379534 0.071799783221 
0.060612559083 0.029528037759 0.024163011629 0.029483067996 0.066442269646 0.047877770953 0.088444068559 0.098205032502 0.039192062214 
0.05082468733 0.063071372184 0.049563356819 0.073631099215 0.058525255331 0.069518875045 0.061478685776 0.036318331045 0.026738521731 
0.01303204285 0.055630959565 0.0881422147 0.04329936012 0.044654930283 0.074760436154 0.089528415155 0.058167639809 0.047751445528 
0.049137009999 0.057298308957 0.037813163103 0.056685239231 0.073489671018 0.080597753111 0.031347999709 0.032546545419 0.034575492384 
0.031072880489 0.097221749486 0.032478905445 0.01927027327 0.092302329603 0.061702504763 0.047597883614 0.072301908461 0.061806838373 
0.083409251736 0.066911189823 0.10857655007 0.071292697587 0.072703899361 0.056201438726 0.066234641435 0.054344875408 0.022704419018 
0.031765817427 0.061097729127 0.034106365605 0.072054252346 0.045634178712 0.045241748123 0.061045566054 0.060352181471 0.069356213947 
0.071290971453 0.037744994027 0.029608317229 0.046092564875 0.083501088576 0.075423911102 0.063774548592 0.061078635542 0.044683686742 
0.045469734741 0.069628793045 0.067831165989 0.038249734093 0.085667966398 0.087531792282 0.057137629584 0.071060819615 0.037651514133 
0.069181716896 0.032355728738 0.030621137855 0.045730073794 0.039829104642 0.045960489086 0.043734144685 0.049608967245 0.03639044913 
0.032605934164 0.036821332308 0.052340390108 0.062823443946 0.060744781764 0.044926846996 0.020954254966 0.032899062739 0.044444904132 
0.042184980423 0.054730158691 0.032172902065 0.016947080015 0.040329373863 0.025279341455 0.015879597082 0.025712520956 0.040296981389 
0.079269268592 0.031634522445 0.049996416603 0.041770634113 0.073411292417 0.037298468106 0.041889293168 0.033033635186 0.068672872982 
0.094027184538 0.058797567917 0.043624406007 0.074187755096 0.032397469901 0.024997559964 0.023511972395 0.03138913862 0.040767562475 
0.03285280434 0.040318849166 0.045446674781 0.046581343459 0.046527539278 0.066252468328 0.065873083224 0.046409800096 0.048013040128 
0.035439480821 0.044466898207 0.055815063245 0.074951380318 0.096024073485 0.099683468526 0.051463024479 0.08839556291 0.053695873951 
0.049014559967 0.045111142876 0.075938297229 0.074041904307 0.042676192672 0.032484499095 0.040021292645 0.032550082017 0.047995316028 
0.064064497149 0.051540242734 0.046675056352 0.039233439133 0.032613618984 0.030483986589 0.030158502281 0.044797015284 0.030266508234 
0.032879726842 0.064662902264 0.06248814828 0.022994564468 0.027136442379 0.041808508573 0.021784071273 0.023407580305 0.10735648685 
0.033757994338 0.021633205033 0.038944705727 0.040994822977 0.02139177298 0.024047283826 0.035727115624 0.036491876027 0.038231841696 
0.083292168408 0.038275180226 0.060367297502 0.062081977555 0.062959437922 0.05008175311 0.025395949829 0.041069113334 0.01740622152 
0.0095233673265 0.019310978026 0.028623151686 0.045178979693 0.030393332857 0.028173327982 0.042455009276 0.031195728213 0.019911476572 
0.022705619117 0.025647053407 0.020950830385 0.0364958273 0.028981876323 0.02426567626 0.044009824336 0.022036660655 0.12689190059 
0.071481488987 0.037084642645 0.052274387712 0.045897553771 0.049196473974 0.035465298792 0.079779937604 0.10947976545 0.11564854924 
0.072914412262 0.052313638445 0.097106499063 0.039013209109 0.041831021993 0.040617571507 0.060879528367 0.085417006982 0.041676722093 
0.033403926068 0.031890330592 0.076939076253 0.056667784386 0.024149432096 0.044897715028 0.03332969001 0.032696421093 0.031207263121 
0.037079326549 0.051386465068 0.038278761792 0.039246820878 0.052581852154 0.073012946725 0.057998656943 0.020178594436 0.046274012913 
0.027565322435 0.078491430992 0.06502441279 0.043592855228 0.041874962363 0.038180331252 0.037359432302 0.03163504398 0.01880021428 
0.024991458804 0.03605129655 0.050582986522 0.037617667067 0.064602876366 0.071571443942 0.084048750207 0.025871460432 0.038805106602 
0.040198758138 0.024589962993 0.027055688746 0.026781965663 0.019085478276 0.02863309048 0.030576905039 0.019561384462 0.037968915439 
0.020673420899 0.032867954303 0.022350186635 0.018859386311 0.020124149582 0.020187206248 0.020942485295 0.021230375203 0.017397926198 
0.014207716549 0.026978015808 0.024952743946 0.014149791301 0.034525400867 0.074182802077 0.059937062014 0.06808629997 0.069970748638 
0.037116484023 0.092352869502 0.043238846269 0.066292035553 0.054938176434 0.054484464616 0.064000906608 0.043949156535 0.073324607732 
0.036490318467 0.044022126869 0.077929424438 0.039047826856 0.048046365466 0.14944475591 0.050238873535 0.035923900178 0.026657112125 
0.043981720788 0.04429973272 0.040675786272 0.051302649805 0.050177383317 0.07427435859 0.054084002903 0.041486314296 0.041582559342 
0.021186609899 0.050488296802 0.06066466785 0.11503492158 0.048590215027 0.033116631215 0.03849870245 0.061843743028 0.066167613748 
0.051698307094 0.10536104121 0.040494426123 0.03512491555 0.026406688372 0.050264577931 0.024948315986 0.024691426476 0.020664291554 
0.045152173062 0.058568794582 0.059987981319 0.072809738667 0.065461603395 0.07266671389 0.074881353392 0.036216398343 0.016356648475 
0.024263098031 0.016048593207 0.035491788059 0.015490558993 0.035199389061 0.015017693834 0.021648395965 0.022860277319 0.018985124093 
0.038730769058 0.042932163785 0.025241377833 0.020852238844 0.020146278365 0.02024352017 0.023013108377 0.0067685965543 0.015786324895 
0.023190449398 0.02461846421 0.022956878824 0.038172393522 0.038145938333 0.04742176405 0.068483433443 0.040623403903 0.057369995948 
0.085416679407 0.12348480511 0.029944578279 0.051302233475 0.063756706684 0.053288704507 0.060213006218 0.049376436123 0.058560228349 
0.070092830989 0.11899021698 0.1111429555 0.07349864119 0.075853796096 0.06135684567 0.10631850052 0.029741877251 0.068335946622 
0.034509011122 0.034482494163 0.034999892749 0.047781074197 0.046968445145 0.060780128632 0.02601647464 0.029460911548 0.021017519068 
0.022605049481 0.017370163036 0.021571894676 0.031756110664 0.031019619179 0.025286055158 0.031308227589 0.037740960509 0.078122648743 
0.045976107091 0.074033539539 0.13883062867 0.015028441124 0.043713666875 0.052582245926 0.035713895851 0.031055878707 0.013442350793 
0.01645726585 0.092074620434 0.034441333434 0.041440988577 0.086544396202 0.060278030007 0.046039058251 0.041207442366 0.044393494608 
0.018528221451 0.036659150534 0.027552793033 0.013740945871 0.030889718355 0.0086197529831 0.023910817559 0.031714883818 0.014092639306 
0.031460124086 0.025540051954 0.026398684464 0.032702292635 0.034906897271 0.020947895062 0.023466226128 0.023742973525 0.0080124925981 
0.011284814421 0.02485304147 0.022248060633 0.022482400923 0.026052891556 0.033887159932 0.030367173141 0.040822003193 0.041656959856 
0.077781011652 0.13856654667 0.098392286244 0.05483738161 0.042942655527 0.06743233467 0.064451613866 0.054468791739 0.046658465511 
0.04685918586 0.073307919593 0.058449039423 0.11437126163 0.067559980659 0.043343544584 0.043144182933 0.028362354582 0.057545125996 
0.031737223295 0.041472906492 0.025820651606 0.03636963464 0.024974182404 0.029210849922 0.043989169899 0.023484842016 0.019482950411 
0.031919019511 0.018788187396 0.020957125637 0.027980434773 0.022739063671 0.029542811079 0.02374285673 0.020752396026 0.038529629156 
0.041655060169 0.040506837833 0.052005340728 0.065599026031 0.045519522159 0.098521677037 0.032496566658 0.030762319503 0.029813361603 
0.03738502907 0.036995903868 0.023079812163 0.059217741317 0.21418242081 0.040375300297 0.067045227545 0.056555743828 0.036898284459 
0.050412020861 0.077161214993 0.050155921287 0.023191456578 0.023342555148 0.0083772789006 0.0066691409151 0.042181120158 0.017859645104 
0.041254865914 0.063455761571 0.019507609389 0.031799023679 0.019739275251 0.029199087226 0.039553519494 0.026363604388 0.018386569435 
0.022930661486 0.027030527711 0.026444006076 0.010673285588 0.024531292808 0.0085666158206 0.027912063335 0.0090967864037 0.0096358088843 
0.038539638711 0.033045660073 0.049880195467 0.045109235633 0.084734012954 0.083747293498 0.073409095074 0.084179731906 0.046619861392 
0.076142039087 0.048081291212 0.036672189974 0.097866698976 0.072717543346 0.042086785828 0.046496472518 0.04437982804 0.031476742505 
0.046855856441 0.061817267403 0.031088899507 0.10100799469 0.053352589359 0.051469128187 0.026110853071 0.026760621127 0.025204685924 
0.02978922267 0.028423271081 0.020077050301 0.038897461924 0.025192402018 0.028162443772 0.010014779016 0.02205797096 0.02252968778 
0.02212679548 0.027612613525 0.024859062244 0.029283399983 0.040590730781 0.024538084246 0.050130882272 0.035045782472 0.048236854174 
0.060367056295 0.033771645282 0.032893937432 0.033582178357 0.050434969601 0.040334351505 0.033983923459 0.024659304564 0.11548490567 
0.10585560451 0.034259237738 0.063410492621 0.037611591777 0.037099281116 0.058537717458 0.019626834549 0.039608574533 0.032593037088 
0.022531391039 0.032489774581 0.037984446165 0.029116488981 0.071582014472 0.021188603717 0.053897971539 0.042505351859 0.037255817923 
0.027186521685 0.019870127469 0.01251555307 0.03840117053 0.021254818354 0.0082722700839 0.028533811232 0.023660179795 0.025123459239 
0.027298660735 0.026186961866 0.026511252899 0.02150106367 0.039004697222 0.024078358609 0.033437735863 0.057846039088 0.048381612138 
0.030419647067 0.081487319271 0.048634828226 0.051778007584 0.08619036506 0.037924495247 0.085538817292 0.13286326555 0.040295659108 
0.05426397253 0.065081666637 0.061654173253 0.085865212296 0.071510180592 0.036239908005 0.020061571762 0.029815585866 0.03472496538 
0.021710615987 0.027465308899 0.021267633022 0.02035815697 0.026398282018 0.028683547275 0.031223263354 0.03214309353 0.020359236428 
0.010317733195 0.029807629885 0.021701037146 0.027412450777 0.0086229072203 0.0093325371629 0.028012625392 0.026946322701 0.04652305946 
0.042459556898 0.024341581683 0.031670483912 0.01616714459 0.049871473682 0.10370169656 0.056809371682 0.068626444015 0.060597664725 
0.046493902836 0.044570490683 0.041787039284 0.01690780153 0.0089482127482 0.029949387634 0.05236291451 0.058420851981 0.02730321114 
0.043882932314 0.059015970443 0.070779674751 0.040080971432 0.035133349356 0.021314617084 0.03630276148 0.025046565202 0.020240760451 