# vtk DataFile Version 4.2
vtk output
ASCII
DATASET POLYDATA
POINTS 3942 float
-9.77735 17.9686 28.1764 -9.69584 17.7772 28.2557 -9.77537 17.7774 28.1025 
-9.69582 17.8262 28.3025 -9.55288 17.7774 28.5025 -10.1326 17.976 27.6186 
-10.1275 17.7715 27.5539 -10.3178 17.7756 27.3263 -10.014 17.7774 27.7025 
-9.9271 17.9771 27.9069 -9.60194 17.9774 28.5025 -9.49561 17.7779 28.6264 
-9.49582 17.8329 28.7025 -9.37792 17.7774 28.9025 -10.5325 18.3126 27.1039 
-10.4369 17.9816 27.2672 -10.7955 17.9838 26.9171 -10.0989 18.1705 27.6156 
-9.87009 18.2507 27.9457 -9.51283 17.9898 28.7087 -9.44712 17.9774 28.9025 
-9.38105 17.9774 29.1025 -9.11847 17.9789 29.5517 -9.23685 17.7774 29.3025 
-9.2973 17.9774 29.2618 -9.10369 17.7756 29.5451 -9.0314 17.7774 29.7025 
-8.89449 17.9795 30.0393 -8.94644 17.7774 29.9025 -8.89521 17.7776 30.0546 
-8.78885 17.7774 30.3025 -10.7113 18.2871 26.9456 -10.8937 17.9811 26.8466 
-10.2858 18.5219 27.3072 -9.67673 18.1806 28.2781 -9.49462 18.247 28.5176 
-9.31787 18.1579 29.0497 -9.10958 18.1594 29.4005 -8.66042 17.9794 30.441 
-8.69555 17.7774 30.4738 -8.58899 17.7774 30.7025 -11.1085 17.9768 26.7171 
-11.0958 17.852 26.7025 -10.9013 18.4916 26.7817 -10.6762 18.6636 26.9322 
-10.4952 18.5754 27.1028 -10.1115 18.4386 27.514 -9.98859 18.3774 27.7025 
-9.70631 18.4101 28.136 -9.44144 18.1774 28.7025 -9.11754 18.228 29.3116 
-8.88891 18.1693 29.8324 -8.7051 18.18 30.1079 -8.49454 17.9906 30.7743 
-8.49904 17.7749 30.9815 -8.49582 17.6618 30.9025 -18.2657 18.5729 30.515 
-18.1049 18.3776 30.2622 -18.2585 18.377 30.5193 -17.9439 18.5797 30.1014 
-17.9389 18.386 30.0646 -13.1186 18.1757 26.7356 -13.2958 17.9774 26.7662 
-13.4958 17.9774 26.8442 -13.1144 17.9813 26.7053 -11.2958 17.9774 26.6401 
-11.0844 18.2925 26.6992 -10.4595 18.7786 27.0792 -10.0719 18.5818 27.4885 
-9.88431 18.3778 27.8741 -9.58642 18.3774 28.3025 -9.47257 18.3855 28.4344 
-9.07912 18.3849 29.0949 -8.97005 18.3924 29.3158 -8.8654 18.3694 29.5708 
-8.49589 18.1761 30.4566 -8.42098 17.9734 31.094 -18.3572 18.7248 30.6567 
-18.1039 18.5768 30.2868 -17.7636 18.3833 29.8907 -17.8958 18.2152 29.9025 
-13.6731 18.1828 26.9641 -12.8958 17.9774 26.6325 -12.7783 18.1809 26.6293 
-12.6475 17.97 26.5683 -12.0803 17.9799 26.5023 -11.8958 17.8835 26.5025 
-12.2571 17.975 26.5011 -11.697 17.976 26.5379 -11.6958 17.8549 26.5025 
-11.5023 17.9859 26.5721 -11.3096 18.2484 26.6144 -11.0457 18.5775 26.6915 
-10.8958 18.7774 26.7652 -10.2958 18.7774 27.1949 -10.1193 18.8201 27.3078 
-9.89717 18.5816 27.7046 -9.71654 18.5775 27.9472 -9.52285 18.5821 28.173 
-9.29161 18.3684 28.7424 -8.65285 18.3657 29.8877 -8.51079 18.3643 30.1406 
-8.35945 18.2271 30.7007 -8.33166 18.2024 30.9047 -8.47375 17.7774 31.1025 
-18.4154 18.3774 30.9025 -18.3011 19.1166 30.505 -18.1068 18.8047 30.2941 
-17.6928 18.5764 29.8511 -17.5103 18.5779 29.6559 -17.489 18.3717 29.5242 
-17.6051 18.3774 29.7025 -17.3866 18.5774 29.5025 -17.3538 18.3863 29.3065 
-17.2178 18.5776 29.3023 -17.2958 18.3774 29.2009 -17.0958 18.5774 29.1882 
-17.0851 18.4167 29.0758 -17.198 18.3774 29.1025 -16.9667 18.5837 29.1013 
-16.8958 18.3774 28.9585 -14.6958 18.096 27.5025 -14.9422 18.1851 27.6815 
-14.5108 18.1741 27.4285 -14.0223 18.3819 27.1205 -13.9589 18.178 27.0944 
-14.1065 18.1807 27.1818 -13.1673 18.3714 26.7506 -12.4958 18.1774 26.5568 
-12.2873 18.1947 26.5135 -11.7946 18.2318 26.5283 -11.305 18.6325 26.5968 
-11.011 18.9686 26.6978 -10.6101 18.9709 26.9192 -10.3018 18.9991 27.0997 
-9.89823 18.7887 27.5167 -9.47923 18.5438 28.2813 -9.29416 18.5626 28.4654 
-8.78329 18.7494 28.9223 -8.70811 18.6069 29.4 -8.50193 18.5819 29.7514 
-8.40081 18.413 30.2759 -8.31088 18.3856 30.5239 -8.29163 18.1847 31.2148 
-8.45101 17.7774 31.3025 -8.40353 17.5774 31.3025 -8.4387 17.7774 31.5025 
-8.40185 17.5773 31.5563 -8.39906 17.7763 31.8696 -8.39744 17.5775 31.9927 
-18.4959 18.5775 31.0542 -18.4958 18.3774 31.0318 -18.5431 18.3774 31.1025 
-18.4398 18.5774 30.9025 -18.4196 19.0011 30.7029 -17.7959 18.7707 29.9618 
-16.6785 18.5816 28.9264 -14.673 18.3859 27.5248 -14.2951 18.3143 27.3021 
-14.037 18.5729 27.1156 -13.677 18.6376 26.938 -12.5028 18.4395 26.5499 
-12.0819 18.5158 26.5102 -11.4929 18.6687 26.5525 -10.8958 18.9774 26.7486 
-10.1146 19.0233 27.1963 -9.80929 19.0612 27.3586 -9.72871 18.7784 27.7024 
-9.38376 18.9195 27.8922 -9.2876 18.7912 28.1811 -8.91627 18.7568 28.6997 
-8.45986 18.5469 29.8971 -8.3201 18.6254 30.0876 -8.12531 18.606 30.6988 
-8.16389 18.4768 30.9321 -8.38369 17.9774 31.3025 -8.4055 17.777 32.1077 
-8.43513 17.5786 32.4069 -18.6417 18.3774 31.3025 -18.6958 18.2811 31.3025 
-18.6056 18.5774 31.3025 -18.49 18.802 30.9081 -18.3442 19.4084 30.4841 
-18.1351 19.1841 30.2856 -17.8528 18.9656 30.0174 -17.5071 18.791 29.6666 
-17.3025 18.7684 29.4573 -17.1131 18.7788 29.2751 -16.6462 18.796 28.9386 
-16.6953 18.3735 28.9024 -16.4958 18.3774 28.8235 -16.6958 18.1774 28.8168 
-16.4958 18.1774 28.7788 -15.2333 18.3772 27.9078 -15.0967 18.1814 27.8013 
-14.9371 18.379 27.6942 -14.3081 18.6248 27.2752 -13.3483 18.7873 26.7996 
-12.8957 19.018 26.6409 -12.6738 18.6727 26.5898 -12.3015 18.662 26.5239 
-11.7597 18.518 26.528 -11.4067 18.9698 26.5711 -10.879 19.2009 26.7092 
-10.6838 19.1852 26.8065 -10.3474 19.1811 26.9898 -9.5795 19.0973 27.5135 
-9.09113 18.7729 28.4336 -8.70486 18.9917 28.683 -8.49123 18.7911 29.4334 
-8.32539 18.7876 29.7426 -8.03668 18.9005 30.3309 -8.13718 18.6661 30.495 
-8.14313 18.4368 31.2897 -8.2719 18.1643 31.6513 -8.34175 18 31.6229 
-8.27195 18.1662 31.9171 -8.43002 17.7786 32.3193 -18.6901 18.3437 31.5171 
-18.5683 18.859 31.0725 -18.5717 19.3221 30.8766 -18.504 19.518 30.683 
-16.8945 18.7655 29.1038 -16.4768 18.6064 28.8084 -16.3211 18.1779 28.693 
-15.2958 18.0733 27.9025 -15.5046 18.1788 28.087 -14.5504 18.7423 27.4078 
-14.4445 18.9701 27.3285 -13.883 19.0811 27.0278 -13.6554 19.3622 26.9092 
-12.4997 18.8035 26.5565 -12.0949 18.8805 26.5117 -11.6941 19.1339 26.5247 
-11.0524 19.2191 26.6391 -10.0872 19.5562 26.9143 -9.73863 19.351 27.2033 
-9.5206 19.3923 27.3302 -9.36758 19.1045 27.704 -8.99545 19.1188 28.1287 
-8.5103 18.9993 29.0004 -8.12465 18.9989 29.9214 -7.93862 19.0042 30.5138 
-7.87935 19.0137 30.946 -8.24889 18.2648 32.1023 -8.48398 17.7764 32.5538 
-18.7655 18.3774 32.1025 -18.7507 18.3774 31.9025 -18.8347 18.1761 32.0552 
-18.6633 18.5774 31.5025 -18.6967 18.3782 31.6107 -18.6303 18.7774 31.3025 
-18.5043 19.9149 30.4646 -18.1142 19.3669 30.2339 -17.426 18.9801 29.5944 
-16.9044 18.9763 29.1366 -16.5867 18.9514 28.9132 -16.2976 18.3773 28.702 
-15.7053 18.3904 28.2512 -15.0699 18.7834 27.7337 -14.1009 19.0723 27.1275 
-13.1903 19.2367 26.7372 -12.6897 19.5266 26.5834 -12.3184 19.1176 26.5325 
-11.9076 18.8768 26.5148 -11.4958 19.1774 26.5425 -11.2391 19.205 26.586 
-10.4737 19.6335 26.684 -9.77241 19.4691 27.1117 -9.30707 19.3951 27.5142 
-8.9809 19.323 27.9102 -8.51274 19.1925 28.7082 -8.3199 18.9657 29.4953 
-7.93854 19.1998 30.0951 -7.86923 18.9716 31.4557 -8.16406 18.376 31.5474 
-8.09529 18.5951 32.0125 -8.25265 18.3267 32.2665 -8.37099 18.1224 32.4861 
-8.53421 17.7735 32.6858 -18.6818 18.3739 33.2983 -18.7576 18.1774 33.1025 
-18.6937 18.1796 33.3407 -18.8292 18.1774 32.4362 -18.7844 18.6927 31.9055 
-18.7153 18.559 31.6994 -18.6895 18.9946 31.3353 -18.6955 19.3511 31.0981 
-18.7399 19.6159 31.0165 -18.651 19.7774 30.7675 -18.2912 19.6863 30.3151 
-17.6873 19.523 29.8035 -17.6367 19.1596 29.7978 -17.1045 18.9773 29.2943 
-16.3285 19.135 28.6857 -16.3499 18.6835 28.7108 -15.9692 18.3651 28.4641 
-16.0874 18.1784 28.5367 -16.0958 18.0965 28.5025 -15.7337 18.1749 28.237 
-15.3099 18.7784 27.9105 -15.0701 19.0153 27.7234 -14.7204 19.0288 27.5073 
-14.0832 19.3862 27.1272 -13.3269 19.5666 26.7876 -12.9685 19.555 26.6605 
-12.5051 19.5212 26.5472 -11.9611 19.1897 26.5152 -11.7549 19.3567 26.501 
-10.7665 19.7059 26.5626 -10.2958 19.5774 26.79 -9.71261 19.7744 26.9982 
-9.44994 19.5627 27.2749 -9.12263 19.3783 27.7068 -8.70067 19.3822 28.1924 
-8.71302 19.2203 28.3668 -8.36409 19.1654 29.0389 -8.28798 19.1497 29.267 
-8.02879 19.1774 29.9025 -7.89472 19.1716 30.2896 -7.75477 19.3774 30.5025 
-7.68671 19.3276 31.2746 -8.07751 18.5598 31.5485 -8.07239 18.7426 32.3056 
-8.44208 18.1774 32.7025 -18.6283 18.3774 33.5025 -18.6453 18.1774 33.5025 
-18.7667 18.3779 32.9433 -18.7883 18.1774 32.9025 -18.7771 18.3774 32.7025 
-18.8208 18.1774 32.7025 -18.7733 18.3766 32.4633 -18.8152 18.6712 32.1193 
-18.7034 18.7976 31.5594 -18.6976 19.1695 31.2125 -18.6963 20.2225 30.5181 
-18.4698 20.1122 30.3037 -18.1003 19.5745 30.1737 -17.8436 19.5801 29.9408 
-17.3212 19.1786 29.494 -16.894 19.288 29.133 -16.5811 19.1619 28.9069 
-15.8958 18.1774 28.3854 -15.7057 18.7704 28.2069 -14.6963 19.3854 27.484 
-14.4461 19.3315 27.335 -14.0189 19.7573 27.0847 -13.6715 19.8125 26.9156 
-12.7549 19.7677 26.5711 -12.2667 19.3845 26.5241 -11.4929 19.5455 26.4859 
-11.2529 19.4965 26.5196 -11.0263 19.7438 26.4946 -10.4745 20.0961 26.5221 
-10.2017 19.8177 26.7339 -9.49615 19.8057 27.1144 -9.23989 19.774 27.3367 
-8.97415 19.5921 27.6882 -8.6688 19.5738 28.0519 -8.49573 19.377 28.5007 
-8.3205 19.3795 28.816 -8.10834 19.2439 29.5372 -7.92722 19.3788 29.9323 
-7.79992 19.3774 30.3025 -7.69778 19.3834 30.8897 -7.70997 19.2626 31.5947 
-7.89272 18.9329 31.8419 -7.98916 18.8187 32.0899 -8.27839 18.4164 32.5027 
-8.34855 18.4446 32.6989 -8.54175 18.1128 32.8588 -8.74897 17.7826 33.0849 
-18.5087 18.3749 33.8512 -18.5633 18.1774 33.7025 -18.4962 18.1768 33.8986 
-18.6405 18.5696 33.581 -18.7926 18.6119 33.0907 -18.8404 18.9774 31.9025 
-18.7479 18.9768 31.5761 -18.7965 19.1774 31.5025 -18.8009 19.3774 31.3025 
-18.9429 19.8987 31.1197 -18.9061 20.0786 30.8964 -18.3491 20.3522 30.0718 
-18.0982 19.7971 30.0921 -17.6774 19.7726 29.7434 -17.3561 19.4313 29.5096 
-17.1222 19.3231 29.3122 -16.4546 19.4363 28.7834 -16.1209 18.8337 28.5181 
-15.9731 18.6066 28.4287 -15.0547 19.1683 27.7121 -14.2829 19.7483 27.2297 
-13.2489 19.7821 26.7343 -12.3905 19.7674 26.488 -11.7599 19.572 26.467 
[...]
CELL_DATA 7744
FIELD FieldData 1
Area 1 7744 double
0.016798561728 0.0077417727348 0.03116681633 0.019403225869 0.036245357171 0.030315654058 0.0069891023749 0.024404868115 0.01398373578 
0.0094242397495 0.083682571699 0.048997864751 0.034809460264 0.042711604125 0.027112493347 0.02399257636 0.0058562599344 0.023350791904 
0.022170915666 0.034488674024 0.028223009935 0.017664371786 0.021974621628 0.016208343605 0.027258079951 0.018301011064 0.035418931868 
0.072559684822 0.045710207457 0.052610920931 0.046148197 0.039365401545 0.031687593556 0.016159627425 0.02064836339 0.017784407432 
0.034210009349 0.054296068669 0.047952663559 0.020211823057 0.026124282971 0.015835309806 0.059578701613 0.044909429025 0.03934379941 
0.079421272255 0.074555858067 0.037127378822 0.040301017613 0.039782211108 0.019877057683 0.021052105708 0.040778580701 0.016648230075 
0.048168105939 0.056576221461 0.055433476792 0.040308939388 0.017141315284 0.029364801434 0.025260639179 0.021640803229 0.018812530117 
0.012768256428 0.039719640548 0.055179627767 0.049361568767 0.034029292653 0.030600055747 0.020691675661 0.027849210612 0.013010067479 
0.021681333533 0.022235246356 0.02853065185 0.011660310519 0.037028305053 0.041381943966 0.011447752052 0.0601205207 0.03790178357 
0.048445871813 0.044600107333 0.03786719505 0.029822100374 0.016527176997 0.027983083615 0.024505694873 0.024043664764 0.023375812956 
0.06222480886 0.022594479832 0.026736336289 0.008968607647 0.01261097863 0.01243872886 0.029452777866 0.027496980222 0.03774935135 
0.025624264169 0.039189931907 0.026279165353 0.026969836404 0.040992130558 0.020923326368 0.026086477571 0.021897396712 0.033020281375 
0.023882217696 0.01373516123 0.040115595563 0.043081749675 0.058750044886 0.025651693785 0.038851933863 0.049222786695 0.041838006718 
0.048474524172 0.039619882077 0.041933356922 0.012554284734 0.072435182817 0.045203267069 0.031901238635 0.027923088083 0.034578582989 
0.022355358455 0.027579559754 0.013792607703 0.011981401696 0.022415136739 0.021930345513 0.017415167657 0.03219906079 0.058494828566 
0.036440380424 0.030744411279 0.019523204393 0.018485462359 0.025780464962 0.037936811165 0.03364369408 0.034703583468 0.018834201717 
0.045563494913 0.038126626368 0.023390461791 0.029810119195 0.036985603855 0.033064798525 0.033482267818 0.030514296769 0.012065253518 
0.01651204441 0.040931207276 0.10295593834 0.035398843529 0.042946931564 0.056314128747 0.034846326413 0.028274881066 0.031370657535 
0.027966524895 0.038538370571 0.020446494318 0.020680634048 0.02580561186 0.043407916139 0.0085327759214 0.015304030031 0.026729354655 
0.036215194693 0.075670702101 0.046993486227 0.034208071489 0.024236025903 0.02719485954 0.021304284344 0.028335565736 0.01981731257 
0.01664961049 0.014424608984 0.037486994965 0.051923594945 0.032392273366 0.029472201396 0.035461736328 0.12446180602 0.035001886756 
0.038221552262 0.020887317486 0.043619084604 0.055343429366 0.049052857172 0.10176683734 0.065999888155 0.053051789299 0.054951118363 
0.012657715362 0.033332319133 0.038943252776 0.02546515048 0.024740772189 0.048829865686 0.029871477295 0.036381566498 0.066244945525 
0.019269859535 0.025633487033 0.080852053192 0.067709400149 0.1129352741 0.065684698574 0.020544555462 0.035472486869 0.026522840165 
0.03553586977 0.04030930486 0.033407865677 0.050284539731 0.02479306755 0.02229829792 0.02059198105 0.03735459878 0.023719998117 
0.041424001168 0.012016152738 0.027355452194 0.016193744853 0.031443246255 0.036917474951 0.034456575795 0.052675469795 0.042995101943 
0.026086788575 0.021003156139 0.02542518641 0.017363926985 0.01660541745 0.036447360626 0.021871470893 0.022763758277 0.020845130576 
0.01945454826 0.030503280419 0.039685336094 0.050989148418 0.029832811496 0.091172581126 0.088206750607 0.15965169028 0.056132939745 
0.027973440101 0.050341889153 0.076999268374 0.03572527238 0.030645256846 0.070001491344 0.014331995664 0.036602144799 0.036223205887 
0.021850561127 0.04006721864 0.045646535557 0.049858194508 0.065313171866 0.052014465392 0.052490826197 0.034105454246 0.045350832287 
0.039445502106 0.072168289341 0.05242225965 0.02108856435 0.036345218247 0.06609798293 0.043919900707 0.03368562961 0.05241052271 
0.053526074915 0.049137505965 0.02113811828 0.043967828567 0.048847674433 0.021373579614 0.011928193483 0.02258775312 0.039040770934 
0.018522123051 0.057556969183 0.064804085461 0.041003794085 0.07248678419 0.041043430729 0.044090900114 0.029288138285 0.026875016555 
0.026414548673 0.026972871672 0.024988512543 0.022510703273 0.019857439681 0.02775642236 0.049031261915 0.035481499795 0.05557747569 
0.06850142259 0.050700986506 0.096289871508 0.12693097029 0.1213742724 0.075162553813 0.032153417412 0.049158806637 0.039163322168 
0.046120210909 0.07764243957 0.051061252545 0.052759679723 0.023161105386 0.024804680081 0.042588429222 0.080402231897 0.058382053139 
0.04918214542 0.05694318554 0.05524941097 0.071578864832 0.068214128852 0.048355903124 0.058019119338 0.090697362836 0.045790340569 
0.039123819505 0.087088060345 0.059590096971 0.041172359024 0.039263083015 0.10940189636 0.064271555139 0.028197332677 0.036862545803 
0.056134111469 0.047778233498 0.054541529926 0.024030182836 0.021448775195 0.011325174436 0.025491139302 0.021124867824 0.024272653534 
0.024883006455 0.047899363809 0.055263164823 0.062897847105 0.032331139118 0.04146917988 0.056064428224 0.028927752106 0.028838189449 
0.029211009393 0.032016925957 0.022647237548 0.026474954322 0.023296641842 0.060198517695 0.074418085037 0.12180394821 0.059196450376 
0.039247359414 0.10263177714 0.060167632191 0.088444353042 0.12208461466 0.088217396549 0.094800907573 0.07663010582 0.036711743683 
0.049064762071 0.058840844542 0.057426894305 0.022751241391 0.021886312127 0.046773215203 0.054667137516 0.080965979689 0.10526291522 
0.036036300619 0.042826864785 0.048596934811 0.049071627622 0.064612750621 0.074279986689 0.11849261269 0.046354941081 0.060570203456 
0.037525312525 0.063628010552 0.060988365001 0.035111098372 0.13187930101 0.15607846921 0.027341538462 0.023698469015 0.03839551739 
0.049231309403 0.043069496119 0.024963807182 0.024162123552 0.040466429161 0.031796542587 0.026876399174 0.019255826318 0.020960108979 
0.028459658215 0.062480315559 0.051046278478 0.056031547485 0.055486495694 0.052156829812 0.14838057516 0.056050939524 0.043859428174 
0.025412773538 0.031075124547 0.073286027285 0.017397284792 0.035662914466 0.040752106766 0.012410210161 0.02970944512 0.11735736739 
0.060306540547 0.071286701924 0.041354783674 0.061697257938 0.037555775345 0.070567124983 0.07267303178 0.074999859053 0.076584224339 
0.067504184764 0.04448623098 0.050535224043 0.033351951811 0.040290851179 0.023623291707 0.028368442136 0.04779405488 0.090517480495 
0.054710395108 0.05725145711 0.061372613335 0.027621386494 0.023375392803 0.027007734975 0.044570995265 0.045553007653 0.055743361638 
0.069637706279 0.051329625628 0.037995294499 0.054261959166 0.052046586696 0.021284334686 0.030727735218 0.031390718128 0.090671952817 
0.099171259303 0.066198053238 0.026223573981 0.031661426619 0.1066095729 0.060327608986 0.036678571721 0.058950357566 0.047611233762 
0.016954141142 0.020715582086 0.03665193 0.02034901457 0.020728450545 0.027535714598 0.03736774013 0.032387191416 0.033596233942 
0.023162277854 0.028913559778 0.029234862163 0.033969473602 0.033575921944 0.035735612398 0.047837879943 0.066601626331 0.043990039402 
0.027780577556 0.033789322062 0.06009364432 0.042092033936 0.043859074607 0.039709847985 0.060670791812 0.035459444897 0.034895313355 
0.061987016457 0.026237396719 0.010719645816 0.036689204927 0.094277112621 0.03458008649 0.060217181288 0.059597917036 0.075698452383 
0.090010460607 0.08064540454 0.061883912272 0.034294157443 0.02263550335 0.066294226342 0.045892237606 0.029198428066 0.028198709758 
0.048589167078 0.03917317858 0.078217863481 0.075059579536 0.028305067268 0.031964700268 0.074553526896 0.040744042947 0.05426936572 
0.049260163549 0.033364116211 0.033020332374 0.047198682693 0.044346818402 0.041592807872 0.04341910684 0.025645155143 0.045949110147 
0.075309684235 0.038222590425 0.022316451607 0.022846072605 0.026715549184 0.042550852369 0.081237095296 0.078338601241 0.057867319926 
0.0870235936 0.037677884608 0.093438205919 0.031231788376 0.053859702985 0.036642735945 0.032982339486 0.037270751122 0.078048130015 
0.020518111535 0.02168084496 0.020448730764 0.044313994702 0.024270994756 0.024493700231 0.05376561878 0.031385149778 0.035310563504 
0.022958447839 0.028197702737 0.022993309972 0.032380727618 0.056236173263 0.089939444174 0.041231048316 0.070617971866 0.030444121186 
0.036344441998 0.02762263074 0.07883836326 0.055744778229 0.048414679146 0.049715800653 0.041151263008 0.048466066199 0.065126749528 
0.057994634852 0.022954459953 0.020521756364 0.041008496634 0.064072408314 0.057363133966 0.031312370318 0.072178097952 0.052496191516 
0.081879266322 0.055525810091 0.08747133734 0.051123958677 0.041759540861 0.057209465608 0.046424615508 0.035540361877 0.045685325796 
0.029056779844 0.045040874437 0.035862918915 0.079084978419 0.068836268229 0.098773450379 0.019791952387 0.09203388086 0.027192425309 
0.041958538752 0.083577856087 0.071594413045 0.03277212823 0.035604728593 0.039459016796 0.037317792538 0.031057731529 0.040121305844 
0.034330011793 0.02957109195 0.037100243889 0.020563797682 0.039600560588 0.044508002928 0.01290381589 0.067203437732 0.036623702733 
0.036146552441 0.059099555797 0.032352435373 0.024253325318 0.040168169792 0.033074245597 0.021836825345 0.036610654609 0.036170215576 
0.057336949623 0.019987938368 0.026171718241 0.035136659804 0.050165697228 0.056391673669 0.049167676454 0.034022533597 0.025605642309 
0.033099104819 0.060787196542 0.044121309545 0.0594931184 0.061416454327 0.040719672631 0.034512116637 0.09559221131 0.03430969098 
0.043122171585 0.030559323443 0.042271465775 0.078316381695 0.03671597097 0.053121765794 0.055288475554 0.075560208471 0.068778209447 
0.088168018174 0.047021009446 0.053676724208 0.098499654716 0.023739492592 0.060331767508 0.091944285939 0.057913084771 0.032662678466 
0.040358412294 0.040153451741 0.075742555174 0.03942434901 0.026675931306 0.024574900211 0.051821060876 0.055021386047 0.029285092444 
0.037513492253 0.041596883912 0.08544332754 0.047000310278 0.05122965689 0.016847254644 0.024385726943 0.048906196938 0.034552057724 
0.047801097367 0.046772045247 0.032110464317 0.042123738403 0.040600185246 0.031858419502 0.03209163747 0.030594721032 0.026457472312 
0.037439383789 0.039811720212 0.046261959593 0.031233615146 0.026430699757 0.02875011115 0.013335230668 0.052722755341 0.067596316765 
0.053884975582 0.035407227688 0.067396115656 0.048191588194 0.033677505531 0.047050338375 0.061684497456 0.066593196278 0.023437282141 
0.017952448236 0.027349547694 0.026820104494 0.050488104588 0.11994195455 0.039185121803 0.02257066171 0.029770896017 0.083819998956 
0.023567752089 0.03988718803 0.025900273967 0.043383322373 0.040620144586 0.029928113331 0.044040744172 0.029664136147 0.04391989298 
0.020548138465 0.031269315046 0.087367340261 0.076053072434 0.020857427384 0.028501990527 0.056706483074 0.05474416133 0.059376171987 
0.10060239511 0.092599858749 0.11073929031 0.055707373739 0.073837187732 0.08439648491 0.078600364824 0.042473792245 0.088260890709 
0.067424743338 0.030061104256 0.050796087605 0.05862507592 0.042398276269 0.039679797409 0.050304830267 0.034055341476 0.042065832259 
0.066462841306 0.063275078245 0.037143367044 0.043802948364 0.044600044853 0.039966963154 0.027616234511 0.020076586987 0.046916981647 
0.025723167882 0.027209415133 0.054717563232 0.033503392197 0.03359901549 0.01707781631 0.027026522491 0.02142939843 0.023589994059 
0.039113050738 0.02256812382 0.038713694637 0.020062171782 0.023440857939 0.031913674578 0.056377869926 0.015231865971 0.021257861093 
0.027048390135 0.063940851559 0.053425100937 0.037051634173 0.061181913086 0.036532835143 0.053437695928 0.026990551742 0.034509796831 
0.054944351032 0.06213909663 0.058855808818 0.068547311613 0.013404660418 0.027107591257 0.045146721756 0.042269807166 0.024705738552 
0.084222411382 0.082559487572 0.04904706416 0.040521475066 0.044842022803 0.072490975354 0.093206140805 0.025375840613 0.024682355876 
0.047093430029 0.025534594255 0.037761954133 0.031772781963 0.028675478156 0.070626661278 0.031576923952 0.033877177055 0.047610852444 
0.055959157427 0.061278812794 0.042736935766 0.036173918047 0.034121296727 0.077354583324 0.10530609853 0.11180802263 0.11856737464 
0.076861924909 0.082870109845 0.036129111932 0.10275160783 0.082671320869 0.059697150071 0.032984215594 0.068578754374 0.036528414106 
0.025159779881 0.054969619878 0.036395642868 0.024983812399 0.051397319129 0.036634842893 0.064604571603 0.08104423687 0.051356112662 
0.020934927954 0.031262830618 0.024216727746 0.034292852025 0.030862486753 0.01945392163 0.023865335594 0.028312724259 0.0249518528 
0.031585620254 0.021634572633 0.031079124802 0.030850980031 0.016844623449 0.024497263449 0.020463354251 0.021965559593 0.038992497383 
0.025808983461 0.022055365311 0.027687413635 0.02213468259 0.025900149245 0.04291391763 0.020249519262 0.02502464918 0.034054870805 
0.022683280527 0.037249246935 0.036340304638 0.034084917914 0.035146275403 0.059904891021 0.040430403233 0.051793520985 0.043374575135 
0.054010819546 0.055343982904 0.054080806927 0.061664741506 0.031351575938 0.012109658897 0.033609583438 0.050893595772 0.048382729856 
0.033587159215 0.10615235643 0.068709970573 0.063795499814 0.04169426492 0.058869862282 0.051401233485 0.041963250496 0.034467203954 
0.024389828583 0.039998441599 0.024170233313 0.032525832406 0.051189112419 0.044018065082 0.055222750762 0.037026721352 0.047446229641 
0.061888781435 0.07372500741 0.02286024163 0.059884445682 0.03869089319 0.067284277209 0.072072557025 0.10155190589 0.13748780944 
0.052227796481 0.032509945335 0.054800997428 0.063831890553 0.036863146925 0.032484828231 0.020100870264 0.054295099453 0.042024432358 
0.046862413333 0.024541023526 0.036677621046 0.060484741912 0.055151452721 0.027740313168 0.088109805657 0.063266903537 0.052724505263 
0.049597212278 0.024010058855 0.015771817437 0.02111976135 0.030992570534 0.027011673189 0.025024195635 0.028301905601 0.02432167234 
0.025955669682 0.026868865715 0.023786248644 0.028133906138 0.021120091716 0.024289389079 0.02748921321 0.021914313141 0.021382389707 
0.022576226248 0.039122292268 0.021743586662 0.028628767398 0.05051825361 0.026390165483 0.048061208693 0.033518391101 0.029212499495 
0.051446526286 0.028095440747 0.029153059275 0.032650472092 0.032532757068 0.01699715306 0.026120619671 0.020249434139 0.025774082862 
0.010367341511 0.022592815629 0.020663548811 0.020357746859 0.019315054755 0.017680448037 0.074367838131 0.059300584457 0.061782321323 
0.0523751921 0.04389727662 0.051370923112 0.02016174448 0.077307282579 0.039276843414 0.051033403716 0.050404739542 0.042784409743 
0.037712757781 0.066402940601 0.046097542034 0.059247569635 0.039363631522 0.076035809933 0.11049443899 0.051095661502 0.041129166288 
0.051427329082 0.02767597994 0.015199535157 0.020866760127 0.026898343567 0.061047172627 0.026342598572 0.04453333726 0.037161078876 
0.020286888921 0.020863931337 0.018922377504 0.022440446087 0.021047886274 0.015169995191 0.0075169167893 0.022074169553 0.01889424634 
0.018318057684 0.019638212256 0.020798311825 0.025378104357 0.024538212976 0.028597537754 0.02914337975 0.076238293643 0.058422676019 
0.037966008555 0.088999390481 0.057386133632 0.053488031745 0.059911457689 0.053297350524 0.092547703434 0.085801543013 0.078216503323 
0.067938520117 0.038342339717 0.043459760283 0.016655308566 0.036894031637 0.061095726243 0.036214661069 0.044794521506 0.02967902255 
0.072411287964 0.066758022684 0.043876933092 0.034517393335 0.021917681453 0.038707549045 0.019887370844 0.020516053445 0.034738163156 
0.019109015783 0.030179102252 0.038341431522 0.020412543032 0.021814081698 0.042181102721 0.022525189281 0.020658338921 0.011876155104 
0.027872760621 0.017511817686 0.018784653234 0.029349613213 0.026555870993 0.017039132129 0.025786255984 0.037155004339 0.031176877103 
0.029883727208 0.024044764003 0.029197095 0.043446226673 0.035631270308 0.04756364857 0.039766468457 0.031647345575 0.029632944803 
0.0063625951509 0.010815939606 0.01365814981 0.023349698994 0.022624979957 0.050101160796 0.023144964823 0.023087281906 0.033323882686 
0.032491238817 0.032869018073 0.044742687438 0.095745224778 0.033539838073 0.039851438367 0.035002909112 0.029711561443 0.036458584413 
0.029748057247 0.037961976172 0.035302527434 0.024993943888 0.0200804003 0.022444062245 0.02590902778 0.028184293352 0.024934217384 
0.013896765773 0.02740548862 0.0057889932179 0.0058178686788 0.020147436107 0.020113996281 0.020967903433 0.030960023566 0.12501421122 
0.040188515797 0.081389353313 0.094542786365 0.043516099908 0.036090907751 0.047436235798 0.046479761407 0.043410961511 0.038628403496 
0.030425840922 0.057060404686 0.02360984279 0.018425114706 0.051126680714 0.038359423538 0.063406178021 0.06799620634 0.059191404621 
0.057988475525 0.064827049861 0.033338824295 0.053638228309 0.020098655219 0.015593395496 0.026122913035 0.034578075119 0.052179372526 
0.044571064163 0.021292693514 0.019483616912 0.02665461533 0.018708758321 0.021490166898 0.023241320316 0.020430173222 0.020436958335 
0.019887863163 0.025296416864 0.02545313031 0.020325965673 0.029060479752 0.058427110913 0.081974649079 0.031837278372 0.039632318907 
0.073547264193 0.078407024023 0.044717713866 0.075758077538 0.072165536146 0.085675713688 0.084057859683 0.083693245932 0.039766776718 
0.022957521167 0.034275344717 0.05941915585 0.038251049039 0.032346003865 0.056289735626 0.072737936163 0.055965274104 0.055678439566 
0.054815721929 0.039399093263 0.034889022623 0.032008413632 0.015429148143 0.044325534192 0.019744135423 0.042619283409 0.018871264704 
0.045150271751 0.022115607743 0.022636425749 0.024045968365 0.021731973261 0.032137675211 0.032256777913 0.03303423843 0.049764614335 
0.044570400857 0.029681192533 0.026940061824 0.018880369873 0.01138585054 0.030126331373 0.014902260128 0.019881177408 0.022138779659 
0.0209260193 0.01291684809 0.0238214863 0.029614280365 0.03470919783 0.040946187553 0.063328640855 0.048815138262 0.039524209209 
0.044070516488 0.042038465621 0.0412186334 0.062890112262 0.034993644322 0.039358972368 0.041099694804 0.033543682435 0.045254635128 
0.060641681651 0.039034539814 0.031336765925 0.051561470923 0.032582050153 0.031601652442 0.029385355502 0.050211307618 0.10396477413 
0.041814937463 0.032542209714 0.035314276285 0.033024203243 0.044027726312 0.085740287106 0.072498994063 0.069588750527 0.028436464992 
0.020553183368 0.021544629554 0.038712618882 0.028519395386 0.042796890936 0.022114686242 0.024382071739 0.039367500604 0.033139167525 
0.02352153906 0.020871877522 0.02103474599 0.013484316847 0.015516676969 0.027237522162 0.041866247473 0.080354901036 0.078004489843 
0.04675226346 0.028059608872 0.11212072436 0.047254266995 0.030476326196 0.052969810038 0.035752088623 0.031879773009 0.021089632262 
0.023659159571 0.033276979643 0.047576328994 0.034681080008 0.059025109554 0.053372398361 0.031480748226 0.032672242682 0.043816336334 
0.044478186455 0.072302816911 0.049330844277 0.10207876971 0.076463917312 0.037430341958 0.01546779726 0.013504632585 0.014699820349 
0.030950627805 0.021984742081 0.027758042193 0.024657229908 0.025126817954 0.022152138514 0.027795724464 0.025231029562 0.021622646391 
0.028191631501 0.021520402916 0.018258923215 0.053942813446 0.025762003606 0.052133219775 0.081984703533 0.051514868624 0.059607929968 
0.059498558447 0.048000688732 0.05842510679 0.039904671356 0.042405286332 0.078964214382 0.029728963102 0.045919770313 0.027634345165 
0.047982022773 0.037543268324 0.031533311477 0.027363645815 0.039405178296 0.048929663887 0.01672622768 0.035158117356 0.047382138691 