# vtk DataFile Version 4.2
vtk output
ASCII
DATASET POLYDATA
POINTS 3740 float
-17.4309 18.3163 29.4774 -17.5515 18.1104 29.5963 -17.6874 18.1104 29.7327 
-17.4868 18.1104 29.5327 -17.3515 18.1104 29.4125 -17.2579 18.1104 29.3327 
-17.0453 18.3047 29.1337 -17.1515 18.1104 29.234 -17.0511 18.1104 29.1327 
-17.9513 18.1096 29.9746 -17.7515 18.1104 29.793 -17.9515 18.0234 29.9327 
-17.9295 18.3182 29.9592 -16.9515 18.1104 29.0351 -16.8385 18.1113 28.9309 
-18.1238 18.3199 30.1711 -18.1048 18.1075 30.1345 -17.5609 18.5295 29.5825 
-17.0189 18.5239 29.0933 -16.8084 18.3131 28.9295 -16.5337 18.3115 28.7373 
-16.5451 18.0968 28.7323 -18.2558 18.1104 30.3327 -17.9413 18.5243 29.9499 
-17.3275 18.601 29.3607 -16.3515 18.1104 28.607 -18.5343 18.3165 30.7915 
-18.5513 18.1118 30.8348 -18.6752 18.1104 31.1327 -18.4987 18.1104 30.7327 
-18.285 18.3078 30.3815 -18.3468 18.1111 30.4745 -18.1238 18.6775 30.1373 
-17.6021 18.9713 29.5975 -17.1388 19.0797 29.1884 -16.8071 18.6505 28.9223 
-16.3957 18.5301 28.6128 -16.2062 18.302 28.4962 -13.8829 18.3097 26.9866 
-13.9515 18.1104 26.9902 -14.3122 18.1059 27.168 -13.8117 18.1114 26.9313 
-13.4314 18.3024 26.7718 -13.3743 18.1102 26.7338 -13.5515 18.1104 26.8108 
-13.1515 18.1104 26.6364 -12.8883 18.3115 26.5362 -12.9508 18.044 26.5433 
-18.7534 18.1089 31.4015 -18.7515 18.0397 31.3327 -18.6835 18.3096 31.1228 
-17.9673 19.0686 29.9339 -17.4966 19.2343 29.4884 -16.7923 19.0045 28.9167 
-16.2019 18.1092 28.4879 -14.9426 18.3135 27.5465 -14.9471 18.104 27.5328 
-15.1515 18.1104 27.6339 -14.7515 18.1104 27.4249 -14.3404 18.3117 27.2013 
-14.5949 18.1107 27.3224 -12.9126 18.5161 26.5424 -12.7515 18.1104 26.4887 
-18.6655 18.8085 30.9482 -18.3216 18.6602 30.3946 -18.1663 19.0685 30.1359 
-17.9656 19.3041 29.8958 -17.1375 19.4144 29.1606 -16.8771 19.3319 28.9557 
-16.5952 19.0571 28.7556 -16.3936 18.7434 28.5935 -16.0003 18.4854 28.3029 
-16.0393 18.1104 28.3327 -15.308 18.3141 27.7755 -14.6412 18.3118 27.3582 
-14.3174 18.6792 27.1593 -13.6371 18.4953 26.856 -12.7472 18.5292 26.485 
-12.5376 18.112 26.4255 -12.3425 18.3698 26.3983 -12.3515 18.1104 26.3962 
-18.7425 18.3062 31.3273 -18.7527 18.831 31.133 -18.4912 18.8275 30.6268 
-18.365 19.067 30.3665 -18.1901 19.3166 30.1031 -17.5272 19.4804 29.4816 
-16.1198 18.7462 28.38 -15.8691 18.3212 28.2085 -15.9515 18.1104 28.247 
-15.3261 18.1093 27.739 -15.0419 18.4927 27.5847 -14.6708 18.5277 27.3447 
-13.9557 18.7918 26.9675 -13.3522 18.6211 26.7322 -13.0262 19.1963 26.5785 
-12.5547 18.6078 26.4402 -12.0433 18.1086 26.3837 -11.9372 18.6352 26.3982 
-11.5734 18.1112 26.4229 -11.3529 18.394 26.4766 -11.3515 18.1104 26.4833 
-18.7924 18.3382 31.5296 -18.8071 18.1104 31.7327 -18.7526 19.2525 30.916 
-18.5191 19.1005 30.5711 -18.0887 19.4995 29.9518 -17.7904 19.5144 29.7019 
-17.3715 19.6998 29.3145 -16.9578 19.7036 28.9776 -16.6071 19.63 28.7374 
-16.3697 19.5175 28.553 -15.9626 19.0724 28.256 -15.784 18.6212 28.1227 
-15.8302 18.1112 28.1352 -15.5645 18.1146 27.9389 -15.0659 18.7353 27.5838 
-14.7472 18.9439 27.3815 -14.3106 18.8992 27.1443 -13.5891 18.7875 26.8142 
-13.0549 18.7776 26.5938 -12.7678 19.1964 26.5024 -12.2438 18.7293 26.4066 
-12.157 18.4379 26.389 -11.7755 18.8204 26.4119 -11.5495 18.5271 26.4376 
-11.1774 18.1219 26.5482 -11.1515 17.9974 26.5327 -18.887 17.9104 32.1327 
-18.8331 18.114 32.5199 -18.8245 18.1101 31.9418 -18.8371 18.3572 31.7639 
-18.8223 18.7002 31.445 -18.8289 19.1935 31.1195 -18.3551 19.3078 30.2893 
-18.3541 19.6681 30.1443 -17.6485 19.7194 29.5237 -15.8686 19.2626 28.1745 
-15.3216 18.7183 27.7608 -14.3123 19.3157 27.1369 -13.8821 19.2316 26.9138 
-13.4058 19.0904 26.7227 -13.0169 19.5618 26.5746 -12.3522 19.0649 26.4214 
-12.0137 19.3217 26.4232 -11.3561 18.8359 26.4765 -11.1566 18.5518 26.5355 
-10.9517 18.1184 26.6588 -18.8598 18.3769 32.2924 -18.8532 18.9736 31.3391 
-18.8483 19.5104 30.9327 -18.6717 19.3104 30.7327 -18.1635 19.7311 29.9363 
-17.9291 19.8089 29.7103 -17.5458 19.9334 29.375 -17.2363 19.8995 29.163 
-16.6509 19.8974 28.7273 -16.316 19.9144 28.4655 -16.1434 19.3264 28.3813 
-15.5682 18.9029 27.9339 -15.3749 19.1207 27.7967 -14.9955 19.2297 27.5348 
-13.878 19.5037 26.8932 -13.551 19.5182 26.7516 -12.5798 19.5059 26.4696 
-12.5504 19.1426 26.4493 -12.1489 19.0643 26.4092 -11.6195 19.2974 26.4406 
-11.5544 18.9184 26.4367 -10.96 18.585 26.6267 -18.8111 18.1203 32.7221 
-18.8387 17.9086 32.8474 -18.8606 18.3902 32.5348 -18.8979 18.6379 31.9841 
-18.897 18.7883 31.7222 -18.9174 19.0198 31.5384 -18.9793 19.3789 31.3363 
-18.9708 19.5564 31.1442 -18.7602 19.5805 30.7221 -18.5533 19.3497 30.5365 
-18.5097 19.5001 30.399 -18.5717 20.0896 30.1398 -16.9514 19.9445 28.9367 
-15.6357 19.588 27.9802 -15.3827 19.3193 27.8 -14.7337 19.2028 27.3626 
-13.5245 19.9293 26.7376 -12.8444 19.7077 26.5199 -12.2649 19.5158 26.4322 
-11.8433 19.5089 26.419 -11.3535 19.275 26.4853 -11.1506 19.0859 26.5428 
-10.7735 18.2996 26.7549 -10.7938 18.1044 26.7514 -18.7407 18.1084 33.0893 
-18.7487 17.9139 33.1894 -18.9331 18.8343 32.5352 -18.959 18.9032 32.3348 
-18.9966 19.8394 30.9421 -18.5777 19.7603 30.3419 -18.1967 20.1008 29.7985 
-17.9326 20.1839 29.5617 -17.2961 20.1145 29.1303 -16.8036 20.1803 28.77 
-16.4947 20.105 28.5591 -15.9441 19.8383 28.1805 -14.976 19.5448 27.5027 
-14.5784 19.6478 27.2697 -14.2547 19.4916 27.0915 -13.035 19.8973 26.5615 
-12.5515 19.7104 26.4589 -11.5448 19.5569 26.4265 -10.9558 19.0935 26.628 
-10.7526 18.6056 26.7447 -10.5933 18.1099 26.9399 -18.6881 18.1132 33.2752 
-18.6925 17.9104 33.3327 -18.7744 18.3277 33.0427 -18.8938 18.7642 32.7374 
-18.9537 18.9167 32.0826 -18.9696 19.102 31.736 -19.0266 19.3386 31.5435 
-19.147 19.7758 31.3354 -19.1455 19.9342 31.1481 -18.9944 20.101 30.7132 
-18.7438 19.8003 30.5323 -18.7647 20.0818 30.3575 -18.5471 20.3119 30.0222 
-17.6956 20.3789 29.31 -16.2907 20.1013 28.4182 -15.9622 20.222 28.1397 
-15.5125 19.9098 27.8682 -15.0408 19.8625 27.5216 -14.7332 19.4976 27.3569 
-14.2301 19.9147 27.0687 -13.8141 19.9212 26.8572 -13.2223 20.0929 26.5924 
-12.6551 19.9129 26.4496 -12.1605 19.756 26.3992 -11.8536 19.6948 26.3908 
-11.2505 19.5133 26.4702 -11.149 19.282 26.5329 -10.7561 18.9097 26.7408 
-10.5495 18.406 26.9347 -18.6087 17.9104 33.5327 -18.8557 18.8215 32.9915 
-19.0003 19.2386 32.7765 -19.0143 19.1083 32.2646 -19.0533 19.3378 31.7247 
-19.1688 19.7501 31.472 -19.141 20.1409 30.9565 -18.7853 20.2975 30.2689 
-18.1085 20.464 29.6065 -17.5387 20.5701 29.1333 -17.1688 20.4256 28.9283 
-16.3107 20.3366 28.3591 -15.7472 20.1616 27.9962 -14.953 19.9073 27.4454 
-14.7843 19.9216 27.3337 -14.4953 19.8287 27.2136 -13.7038 20.1066 26.7857 
-12.7653 20.0952 26.441 -12.3593 19.7578 26.4247 -11.7521 20.0113 26.3153 
-11.3026 19.8167 26.3954 -10.9515 19.3104 26.5962 -10.6191 19.1261 26.8056 
-10.5142 18.915 26.9126 -10.5351 18.7223 26.9129 -10.3032 18.1048 27.2671 
-18.5181 18.1116 33.7288 -19.0129 19.1559 32.5238 -19.3063 20.3056 31.3235 
-19.1238 20.3167 30.7878 -18.9975 20.3672 30.5394 -18.7349 20.5435 30.1404 
-18.275 20.6306 29.6982 -17.8904 20.7093 29.3578 -16.9002 20.6821 28.6534 
-16.5823 20.506 28.4995 -15.7837 20.483 27.9335 -15.5603 20.1157 27.8795 
-15.1215 20.0983 27.5688 -14.5303 20.1322 27.2037 -14.1165 20.1149 26.9904 
-13.718 20.3667 26.7343 -12.8228 20.3524 26.385 -12.5724 20.2565 26.347 
-12.3039 20.1046 26.3329 -11.9455 20.0559 26.3118 -11.5508 20.0064 26.3234 
-11.1196 19.7375 26.4448 -10.9644 19.5442 26.5325 -10.5898 19.297 26.7777 
-10.3329 18.7052 27.1088 -10.322 18.4654 27.1562 -10.1067 18.1118 27.4922 
-10.167 17.909 27.3601 -18.5539 17.9049 33.6975 -18.607 18.3765 33.6235 
-18.7177 18.792 33.4966 -18.8465 19.1049 33.2558 -19.1434 19.6135 32.7279 
-19.1432 19.4965 32.4182 -19.1009 19.368 32.1314 -19.2514 19.8582 31.7417 
-19.3129 20.0839 31.6454 -18.9241 20.5353 30.361 -18.5405 20.5131 29.9634 
-17.5936 21.0228 29.0539 -17.2566 20.7238 28.8838 -16.5192 20.8245 28.3201 
-16.14 20.5365 28.1563 -15.4467 20.2997 27.7681 -14.84 20.3263 27.3648 
-14.7771 20.1194 27.3294 -14.1112 20.3095 26.9515 -13.2998 20.2838 26.5702 
-11.8691 20.4911 26.1656 -11.2217 20.1593 26.3119 -10.9511 20.5008 26.2484 
-10.7515 19.5104 26.6163 -10.3684 19.1229 26.9639 -10.3515 18.9104 27.0446 
-10.1309 18.4804 27.3615 -10.0265 17.9104 27.5327 -18.4425 17.9104 33.9327 
-18.4815 18.3761 33.9202 -18.9453 19.3227 33.1244 -19.1182 19.6451 32.8991 
-19.1971 19.6439 31.9527 -19.3558 20.3086 31.6399 -19.2128 20.5104 30.9327 
-19.1478 20.5085 30.7529 -19.0669 20.7104 30.5327 -18.9487 20.7095 30.3434 
-18.7893 20.9086 30.1294 -18.3617 21.1057 29.6908 -18.0201 20.8838 29.4246 
-17.1429 21.0797 28.7012 -16.3394 20.9719 28.1406 -15.9745 20.8644 27.9228 
-15.5367 20.5411 27.7548 -15.1592 20.4442 27.5424 -14.4898 20.3297 27.1553 
-13.954 20.6067 26.759 -13.513 20.5023 26.5889 -13.1515 20.5104 26.4418 
-12.3954 20.4049 26.2639 -12.1294 20.5075 26.1825 -11.5329 20.6499 26.1273 
-10.7515 20.1104 26.4009 -10.7351 19.7793 26.5163 -10.4433 19.4494 26.7806 
-10.1575 19.3066 27.0099 -10.1865 18.8902 27.1789 -10.1124 18.7131 27.3062 
-9.97903 18.329 27.6165 -9.95076 17.9101 27.6554 -18.3232 18.1282 34.1348 
-18.7054 19.0745 33.6734 -18.8651 19.2721 33.3389 -19.2128 19.9073 32.7693 
-19.2328 19.8068 32.4391 -19.2373 19.7536 32.1332 -19.3426 20.114 31.9102 
-19.2966 20.5104 31.5327 -19.272 20.5104 31.1327 -18.6271 21.1104 29.9327 
-18.5515 21.1104 29.8613 -17.6838 21.2022 29.0964 -17.3718 21.2577 28.8219 
-16.9212 21.0813 28.5326 -16.7665 21.0051 28.4376 -16.6648 21.318 28.2781 
-15.7508 20.9261 27.7476 -14.8562 20.5453 27.3187 -14.2775 20.4934 26.986 
-13.072 20.7267 26.3276 -12.6717 20.7459 26.2053 -11.9598 21.1095 25.9916 
-11.7517 20.9098 26.0468 -11.303 20.7006 26.1329 -11.1515 20.5104 26.2113 
-10.7605 20.294 26.347 -10.5515 19.7104 26.5978 -10.1413 19.0995 27.1296 
-9.96137 18.5586 27.5407 -9.87131 18.1096 27.8685 -18.3479 17.9124 34.1496 
-18.4546 18.7184 34.1104 -18.5894 18.8484 33.8506 -19.0638 19.6695 33.1203 
[...]
CELL_DATA 7339
FIELD FieldData 1
Area 1 7339 double
0.019831408663 0.0093418170525 0.018634767918 0.012667595198 0.014096163703 0.013858954586 0.012381911143 0.0091421396452 0.071751655537 
0.051907384873 0.01355455456 0.015013594748 0.023623104686 0.028147100574 0.073922347444 0.056987444727 0.031596250733 0.038120712665 
0.026422741432 0.030018531823 0.054653084844 0.040344160015 0.064232521333 0.034152552085 0.033957374487 0.024731112977 0.032992346106 
0.01178165221 0.016604799318 0.026519857407 0.051531030168 0.026933634854 0.11701579859 0.072628645457 0.1075918196 0.045571870802 
0.036994588711 0.03982817973 0.040305738873 0.015190111249 0.018599230281 0.023409839977 0.031669220283 0.010043653905 0.03622147994 
0.030898880729 0.047674459252 0.047306694242 0.07081537151 0.13489763792 0.075765944873 0.13152403659 0.11660107532 0.047233486043 
0.08717035607 0.04548979075 0.018436925577 0.023942826698 0.023461757031 0.033154343171 0.052158533904 0.049490973998 0.027670471871 
0.087718846597 0.031315398612 0.025592042426 0.027910823403 0.090607070751 0.084623393743 0.057581429357 0.055628225445 0.060168486408 
0.087064690158 0.079756527488 0.068824937618 0.044675555805 0.055817176716 0.052753884058 0.021673644177 0.04457380897 0.035900766951 
0.018827590664 0.034153699521 0.093174450009 0.047512781228 0.07849578459 0.018064592821 0.022566465441 0.024432123206 0.020894843695 
0.053176682968 0.092137510568 0.087336781899 0.066589214557 0.059740957803 0.035630556576 0.036395314228 0.076185728133 0.061797152906 
0.056324474695 0.044150460247 0.094896677685 0.037077651482 0.06242330397 0.038056319008 0.044834022831 0.013057922238 0.021260960273 
0.038844236916 0.038644452879 0.036875715385 0.070551880278 0.1023698115 0.072713286263 0.0464377526 0.060293172518 0.05500162198 
0.051315306682 0.040013049966 0.12402595616 0.032604370284 0.038485681161 0.021753343648 0.055972630092 0.046268191945 0.050440923365 
0.058886131584 0.038218797287 0.029775919678 0.040959661983 0.063307770689 0.058684186477 0.099217265077 0.10709073695 0.056348433885 
0.049257035933 0.034112450876 0.017509012923 0.032406609479 0.041505785464 0.041685425287 0.089487037274 0.044340847582 0.058330244673 
0.041702453693 0.05472245985 0.035905624544 0.089903683516 0.049807608885 0.050409460814 0.034450311116 0.047410496874 0.076286112366 
0.043435805331 0.026378257131 0.011875239371 0.060606849337 0.02604944818 0.029220364881 0.03925718935 0.072198401069 0.040719294858 
0.092963773885 0.036162032081 0.030162113261 0.045875663627 0.039618895727 0.039777031727 0.040864863109 0.077034587153 0.07631660729 
0.08627164166 0.20476355519 0.030891100083 0.097002245371 0.10688202436 0.075149160931 0.032602764727 0.062957296555 0.054048053963 
0.087374801727 0.054988840362 0.082694617883 0.087680677391 0.055013740544 0.080626261889 0.083293570281 0.049233573869 0.066911689062 
0.059113754914 0.03008091167 0.040662882245 0.062686043752 0.051084724341 0.044072388542 0.042838536305 0.015931883622 0.076915539713 
0.0672980503 0.044233785696 0.038495879251 0.041284491248 0.030946692235 0.028169008815 0.032362409182 0.045888217083 0.035191426329 
0.060322436243 0.045901709872 0.040056855636 0.053592729706 0.056177274321 0.065324348563 0.015154686718 0.036694786676 0.1057821016 
0.12713196909 0.060750744257 0.063124721018 0.084362677278 0.10354937202 0.11042232122 0.04469385187 0.065848982868 0.094721384133 
0.10259380411 0.07493096092 0.059899771703 0.053643806994 0.034155675697 0.055843231147 0.056315503502 0.096109852109 0.04377591318 
0.039377698674 0.045532854427 0.046422391937 0.058686193233 0.022311396548 0.033538564307 0.073329675684 0.063813965787 0.03144435434 
0.049985364852 0.044385502347 0.032770583564 0.02920138854 0.028853697509 0.040354350958 0.045173431767 0.068200494153 0.04077061166 
0.04509982868 0.041832839421 0.043429926483 0.045120172855 0.057571271368 0.065835097632 0.065664428785 0.12127138137 0.054698691218 
0.10928493768 0.040872787421 0.060761726049 0.066594472914 0.12998381248 0.11501349134 0.037965925344 0.039777402285 0.048490329524 
0.02634582511 0.039066980079 0.045318395358 0.044602099841 0.056672684061 0.057742784155 0.049391902098 0.018016750781 0.035150174076 
0.040022125921 0.028211024487 0.054534935361 0.088214951771 0.054094202735 0.042059322837 0.043567181894 0.041887965308 0.041270653636 
0.042926970695 0.055717889536 0.01499354995 0.0279119649 0.040606271553 0.060102089598 0.098534192509 0.060943791422 0.094437246238 
0.041409717733 0.041321920369 0.049244471206 0.042909381858 0.13091038863 0.12941962856 0.091315573462 0.024428792608 0.046221606171 
0.049887011874 0.096185419485 0.037104889037 0.073037814011 0.08719826177 0.031411445313 0.030546273487 0.057833916023 0.065143073042 
0.040068071647 0.037041744069 0.050435809076 0.046772185408 0.054043303513 0.036429172687 0.02686175683 0.015640374848 0.019309997363 
0.040925644983 0.063084807806 0.045928780873 0.055306933881 0.036467627438 0.044714214061 0.0316091222 0.036296817871 0.044514010129 
0.046988816572 0.071447425133 0.055685457847 0.034736576669 0.050906895868 0.058595042209 0.06580029251 0.087865732909 0.088602455114 
0.066394781286 0.048243283495 0.023458930913 0.090870484752 0.079954705388 0.072307394856 0.14741943986 0.01558191417 0.041824101491 
0.025949830648 0.03821588324 0.089893752254 0.065132239439 0.048709862993 0.039155299943 0.030748340075 0.03229968709 0.051392520196 
0.028334995949 0.04035551615 0.033529001888 0.020610707835 0.020885731251 0.058682910501 0.03632132278 0.043523140986 0.041150005266 
0.022173697683 0.021383556369 0.087114301196 0.08339235218 0.050965786958 0.018730699024 0.026399606936 0.057232883848 0.025403297458 
0.030805302817 0.046092650699 0.030116470384 0.041729196359 0.036831841186 0.044358599719 0.061172370638 0.041426048537 0.032985848322 
0.03896323451 0.097931819902 0.058399817277 0.066231108315 0.074612067514 0.091672003175 0.05455536146 0.030144028155 0.037494893095 
0.050162670915 0.077093630216 0.16952652502 0.019926674347 0.059664232355 0.040504139707 0.041258553506 0.062536460888 0.097185137551 
0.02876789458 0.045089413004 0.047834469909 0.037723977662 0.022319160927 0.025909054974 0.024241678626 0.028599068378 0.057461660049 
0.044898052203 0.024991472389 0.022823602363 0.038742816092 0.045136278194 0.043778680647 0.065292572922 0.049060853477 0.053889662366 
0.062050826446 0.04262932014 0.043250103517 0.05165725323 0.066453685609 0.040117984683 0.038461278635 0.05254469751 0.058422202655 
0.029889287825 0.065384423467 0.040989755341 0.042269800528 0.066019964189 0.078463388768 0.057489772568 0.084893366083 0.10057810627 
0.08067255325 0.050969161339 0.042766072521 0.021688965532 0.066871861933 0.01580363574 0.036465974233 0.033034811962 0.047135935809 
0.046458555885 0.043376379359 0.0689019843 0.064306632567 0.028258561529 0.060211517031 0.035821650619 0.054211452617 0.033717922553 
0.046434558557 0.056989346128 0.026679290229 0.036082793239 0.025405181777 0.044259647092 0.033116770582 0.031969567264 0.025607582418 
0.044630333035 0.060908730617 0.030445885746 0.018172804353 0.065043114774 0.18216886573 0.090311408159 0.053114243832 0.04969619658 
0.058812754274 0.074756814891 0.07828382451 0.050000616059 0.035163524572 0.061289496823 0.036533877182 0.03583225519 0.027617162551 
0.035780209895 0.051226740293 0.096547566258 0.061810234202 0.06481541582 0.090226271864 0.064565868117 0.058235895205 0.064114224347 
0.061729190898 0.024159553747 0.055153166705 0.057033783963 0.019939587164 0.031337790789 0.042345280518 0.047951349346 0.045536398374 
0.059244105012 0.041759457422 0.052570242093 0.031465012197 0.05299515738 0.060727623581 0.046103504759 0.050211076462 0.052093922889 
0.080403850203 0.031896599231 0.026893596898 0.04417863366 0.026002303277 0.031485385267 0.020262984046 0.028767109692 0.039509018055 
0.052016727141 0.056385558163 0.022841612574 0.026896174583 0.043153468055 0.095504018569 0.079594437077 0.046607614235 0.035537098093 
0.062750470778 0.048257832933 0.063642667525 0.061033093262 0.038169542465 0.036649376625 0.05673931529 0.026746852475 0.035827165116 
0.025697535583 0.047858047873 0.093346338487 0.05123219517 0.059995775924 0.086588797836 0.081920431167 0.073084114443 0.075325926001 
0.074398331706 0.079485475303 0.039926301515 0.05128084247 0.062488864109 0.029430800499 0.029118066326 0.04681802153 0.04262568291 
0.063714555585 0.042862203324 0.054370739518 0.028786139402 0.035574871839 0.080863534158 0.060343566108 0.11167083321 0.10994772184 
0.033847793329 0.11549259812 0.042852757233 0.032477394033 0.032788363909 0.046417969891 0.022769431871 0.021661751024 0.035883569347 
0.033621215841 0.045925034413 0.014896041738 0.0473179315 0.059072891551 0.067420740282 0.065622123576 0.021638529482 0.07162221971 
0.02578180414 0.049134363772 0.058541154208 0.036814768322 0.047319211224 0.032844890637 0.030501279428 0.033169697011 0.021467421001 
0.018660377667 0.043309060666 0.019727250471 0.051745367286 0.08054147001 0.077072158777 0.096880521081 0.057898843993 0.09321257767 
0.0648520011 0.057577905679 0.067374917828 0.070823692096 0.087503772962 0.061430057475 0.066767843428 0.05034625276 0.064743886813 
0.041536020483 0.04041032397 0.039312376663 0.047247382899 0.047211634959 0.045175484009 0.047460183869 0.087412476328 0.047251143972 
0.083373693243 0.063595712731 0.067694675629 0.037784125474 0.017576136149 0.069022028851 0.028124522296 0.044572791434 0.04025889175 
0.030701506916 0.022652970216 0.027599420018 0.030510766798 0.031159469937 0.049297268398 0.045652058141 0.025748689453 0.068630977425 
0.092983406021 0.049254727792 0.039187342918 0.040637413137 0.041982039449 0.062498952401 0.048366463328 0.048972228024 0.046922027419 
0.027210017066 0.012199890267 0.020500645841 0.020657654324 0.021055579665 0.019306836862 0.022026467713 0.022422414064 0.026268557872 
0.025911797106 0.031329918245 0.026470889207 0.068443808171 0.12154820166 0.027436981454 0.038280651782 0.074626138536 0.063262696171 
0.03957363868 0.059641223467 0.1154298782 0.058151377839 0.030848433949 0.071089707922 0.067909489641 0.077474005085 0.024842282105 
0.040728016324 0.041568886973 0.060720392931 0.039626188985 0.041426677639 0.038567516034 0.084792149254 0.062944837291 0.051486823217 
0.076209857646 0.057442118029 0.027006456558 0.034397384433 0.019749646455 0.039235962076 0.024864447979 0.0044484240683 0.025335280531 
0.021535133103 0.028448853107 0.024730887237 0.019581867658 0.010561659498 0.020667203392 0.023415222821 0.021349097609 0.0032993753451 
0.022815981455 0.019676004172 0.12063236198 0.030099228036 0.034328031065 0.042413594132 0.058140160698 0.060376364975 0.032460637475 
0.032708222602 0.01320090856 0.04229409739 0.040329262186 0.063066624327 0.03709856033 0.071874528116 0.074573164372 0.041926238611 
0.09399811381 0.046169750148 0.042047669133 0.038639694726 0.016864449212 0.033058629455 0.031395219482 0.011844564617 0.023383664784 
0.029152533573 0.012572392421 0.016580230204 0.034687023995 0.030163569139 0.087993801937 0.13349163859 0.036735433728 0.065615288132 
0.030319171625 0.076908108484 0.031635413811 0.034944778654 0.065175668627 0.06687747464 0.020795885398 0.032212413086 0.028124163659 
0.071231471422 0.023828123964 0.017346824857 0.021217392171 0.021338879071 0.024517739066 0.022976769587 0.014236101004 0.014235862725 
0.015105876566 0.015185205404 0.027288312452 0.026133881844 0.0085072395865 0.033109240106 0.027652199587 0.043831107361 0.031831497931 
0.057951968525 0.024572989899 0.095081172849 0.098324752578 0.053751736896 0.062572045382 0.041045869497 0.068249799108 0.035405721292 
0.029593707006 0.03843346283 0.043290623302 0.044726244438 0.029243096058 0.060774231139 0.0194991927 0.020141946413 0.022004600436 
0.02386717058 0.022590346467 0.016147834508 0.0072361429977 0.0094758457024 0.020484045243 0.011559372955 0.025789403179 0.02337485507 
0.013719959786 0.020713475023 0.026776638853 0.024241102528 0.015451925795 0.024656392865 0.029097837782 0.023529543077 0.029105089903 
0.025064470746 0.038321170722 0.055639746431 0.059215991035 0.027021265912 0.026418819727 0.024826756948 0.035188346698 0.026131635146 
0.018169087658 0.030892191606 0.022689420387 0.0064972409815 0.021713955537 0.035026185519 0.036998360571 0.06133999673 0.036515525762 
0.043881758613 0.084617691998 0.077133279996 0.043644613583 0.020460142879 0.046498042542 0.14062237424 0.079574092936 0.13286408517 
0.06065067339 0.023915126853 0.054669474386 0.090211990725 0.018336522894 0.021297833882 0.021432632713 0.0094400752361 0.02343432699 
0.020936366844 0.030772712119 0.030387388546 0.029367353776 0.023196442421 0.031168382325 0.028363621792 0.033776063436 0.096073952655 
0.073025710051 0.029695906284 0.053831586408 0.045278917807 0.045401564316 0.065142353425 0.023172460797 0.032059432985 0.031998940003 
0.040858189663 0.041128561818 0.048403472291 0.052942853841 0.034289955117 0.014333109413 0.014718358822 0.013886206111 0.017697299596 
0.029113956372 0.047395973283 0.034794567805 0.018248122687 0.016093776455 0.047406274939 0.048566317879 0.049703779024 0.0092310074662 
0.022392610472 0.025960140539 0.025309136158 0.024227282975 0.024759662756 0.025998638669 0.018088833561 0.020776601975 0.021027890111 
0.030484062395 0.013397417174 0.021948606203 0.031067014527 0.015060163417 0.029446370553 0.063555961326 0.02663037017 0.0279921176 
0.053740881319 0.062925133191 0.078509952548 0.052637863396 0.050117122529 0.064151655879 0.03511630952 0.016223079255 0.015543043136 
0.022877464556 0.02104791113 0.019249508854 0.018120962378 0.018487983168 0.01142479841 0.035622703716 0.017425311645 0.040053766389 
0.037512369598 0.032367342409 0.039321451364 0.032766101188 0.02662632834 0.029449330235 0.017733178574 0.037140840755 0.024755248719 
0.03183045935 0.040733861847 0.03763565741 0.053684882744 0.027409013447 0.061185912682 0.051471320172 0.11644889344 0.044659758269 
0.04353086115 0.042497248019 0.052142917764 0.084521635884 0.019076215056 0.028355307461 0.037052395728 0.02965899265 0.011277290247 
0.024711780923 0.018742287263 0.027126097813 0.011170562228 0.035714350026 0.035856244099 0.035216208377 0.056700989843 0.043469452804 
0.062188507704 0.097885656304 0.056615947574 0.057297681846 0.019973916095 0.022878763603 0.064955092858 0.10183786093 0.045403170959 
0.086641920083 0.040832395084 0.044847720982 0.11073485509 0.079349497081 0.022388337434 0.015977374091 0.011566635293 0.019188495798 
0.02480623157 0.020511291773 0.020831448576 0.024927928839 0.021702421061 0.023742122605 0.00905512149 0.030332356976 0.038017929502 
0.089594910279 0.080742305233 0.062194964087 0.042669915224 0.048665805964 0.048297123194 0.052169255831 0.019008112044 0.031691714637 
0.019013194135 0.056382947941 0.038497350337 0.053146675615 0.047551153542 0.016299240284 0.032431684372 0.021958741322 0.021500837546 
0.044720118612 0.023498511051 0.029117364413 0.045639086963 0.055771813072 0.044451800276 0.032667789764 0.034310329131 0.032973530825 
0.02662372278 0.04072526592 0.035874474745 0.018270343395 0.020768048484 0.02121542584 0.019709932878 0.019322583664 0.020318001656 
0.020639437957 0.020373962622 0.022970638905 0.019679531844 0.04993498941 0.10596713311 0.10093625453 0.023475728033 0.027644679129 
0.019563910182 0.022583935755 0.033448905208 0.037422335278 0.01921719574 0.021655591976 0.021482168609 0.017632028744 0.019281762897 
0.050539464948 0.048409881655 0.029734015942 0.036005698204 0.032023208194 0.031986603374 0.021872460514 0.016253747534 0.029069855938 
0.066393721557 0.03277096494 0.029525178036 0.03046750892 0.050043087687 0.021689358191 0.074353447697 0.03854474729 0.070425240524 
0.035783784502 0.049280534654 0.046702604583 0.074256667624 0.023107598337 0.046095689893 0.030697702607 0.012904559716 0.03828908741 
0.031301008473 0.0084928623603 0.040204570334 0.021437116047 0.022063490936 0.037856813328 0.038698356576 0.064604504143 0.020845145111 
0.037623869807 0.066333249183 0.020930235089 0.031382419001 0.02375578049 0.053296079515 0.068364563177 0.037948294985 0.037159079821 
0.092090516049 0.05128660244 0.091286023016 0.053869331157 0.080269041897 0.12883206793 0.025211169147 0.02167318423 0.03803770895 
0.015538834527 0.017425236265 0.031207052595 0.028351182651 0.023606835504 0.023151525858 0.018097855916 0.022947297731 0.034388014529 
0.08832422828 0.04547086412 0.066468484923 0.044449210316 0.11379052931 0.036975340476 0.044663528073 0.061136186885 0.034264235268 
0.029970673747 0.027816991019 0.019706041315 0.050572315509 0.056573679093 0.040150564011 0.063707420798 0.046393760934 0.023326232785 
0.021554072313 0.021827865143 0.036378551942 0.039066010268 0.012717611594 0.039359198081 0.046949130583 0.045630206588 0.029556511978 
0.052704869953 0.037321351269 0.049586964987 0.04138547222 0.018305801834 0.020727016836 0.022042455218 0.025707514963 0.044919197797 
0.022112351522 0.040412934881 0.03637846756 0.045960803645 0.042564618797 0.026338427793 0.036135604484 0.037207488097 0.029238090474 
0.029397533828 0.034514822682 0.045683709686 0.13224935932 0.034813036476 0.038304672899 0.021735141382 0.017506968735 0.030596398335 
0.029978448113 0.054390148826 0.060229680035 0.039100763347 0.041412381307 0.031266033398 0.02580828045 0.028081650076 0.038078265339 
0.077001668684 0.026637023382 0.040282483775 0.037549456088 0.034192402008 0.028674172882 0.043858578514 0.050270180044 0.048927204999 
0.088225395093 0.069359843156 0.071318481621 0.049565780272 0.090808366986 0.054516496614 0.050299328204 0.038121979765 0.030740241399 
0.038907611643 0.0218445661 0.041629883592 0.0062574851372 0.021243772084 0.020266976292 0.020272159253 0.021087085074 0.022399677074 
0.040682379335 0.041948890151 0.043482234777 0.026880575768 0.038326402806 0.037166830062 0.064999804204 0.087737515883 0.033071840393 
0.026032031932 0.036689402056 0.057478894601 0.054531042084 0.045544760445 0.06000033719 0.10495633149 0.070584762469 0.047664719722 
0.068184319279 0.048458324097 0.047990267229 0.049011602605 0.033590991402 0.021976695294 0.012059646581 0.014638551067 0.036959370188 
0.03666559789 0.023244889439 0.036243525432 0.024880834469 0.022223002515 0.039763866478 0.030709250796 0.035624034226 0.067888008495 
0.044226877927 0.051260045618 0.039096954424 0.028221883264 0.053244560205 0.057726740851 0.028992992894 0.030429559429 0.058599751537 
0.042396671034 0.037570659973 0.052630404195 0.037183533274 0.023295994229 0.023374293463 0.022217561094 0.027061300953 0.026974812044 
0.049539423947 0.020005061099 0.035655442638 0.017366903121 0.041772841012 0.032356991502 0.026759674729 0.053346794295 0.11931398715 
0.058914878238 0.057335590073 0.032003328688 0.020130216652 0.026216337911 0.025162898194 0.021691970269 0.044074122747 0.031875431466 
0.028305715188 0.03662495725 0.015712255656 0.028668843338 0.029489843008 0.016802377807 0.015723233223 0.016866725016 0.030121836877 
0.056910757147 0.16579329748 0.11360985509 0.041909543197 0.019218544467 0.020307025593 0.014394789972 0.031403913865 0.029709450994 
0.047515977627 0.056345340089 0.041433512041 0.041301207432 0.033252200795 0.025832296309 0.092597226333 0.043628450304 0.055790685923 
0.035088213371 0.034341967311 0.036767230742 0.024144982021 0.019213261883 0.022610930754 0.054109594794 0.12776585492 0.057985081443 
0.031784710211 0.034746355821 0.055673377276 0.12158549395 0.084329982884 0.026718608876 0.038676997761 0.022995473962 0.026263089864 
0.057038164745 0.015299147154 0.0083346559781 0.01136851521 0.01764970528 0.023401047783 0.046949180377 0.05838013998 0.049737161269 
0.053172072401 0.032044670941 0.06611671968 0.0777835523 0.0509745249 0.037378638047 0.027010016122 0.022993419108 0.027172249278 
0.055064698971 0.037960324904 0.048860359299 0.10142380875 0.090629900596 0.065338142638 0.066972828977 0.082067887758 0.083286882462 