# vtk DataFile Version 4.2
vtk output
ASCII
DATASET POLYDATA
POINTS 3671 float
-17.8059 18.3548 30.0833 -17.7787 18.0761 30.0427 -17.9736 18.0641 30.2399 
-17.5661 18.1035 29.8461 -17.5756 18.0467 29.8365 -17.9552 18.2999 30.2353 
-17.3692 18.0911 29.6362 -18.1188 18.1031 30.4365 -17.9706 18.6042 30.2491 
-17.3733 18.3175 29.6638 -17.1572 18.1015 29.45 -18.1438 18.3026 30.4997 
-18.1756 18.1031 30.5191 -17.6379 19.0696 29.8631 -17.59 18.8015 29.838 
-16.9809 18.2921 29.3003 -16.9484 18.099 29.2589 -16.6913 18.3031 29.0473 
-16.7756 18.1031 29.1036 -18.2379 18.1031 30.6365 -18.151 18.6643 30.4624 
-17.9827 19.0438 30.2344 -17.391 19.0078 29.6326 -17.0483 18.5037 29.3461 
-16.6986 18.1031 29.0365 -16.5756 18.1031 28.9472 -16.444 18.1031 28.8365 
-16.3681 18.3042 28.796 -16.3756 18.1031 28.7756 -16.2119 18.1136 28.6576 
-15.949 18.3025 28.4822 -15.9598 18.0956 28.442 -18.3556 18.2993 30.8484 
-18.3693 18.1012 30.8748 -18.3446 18.8686 30.7402 -18.147 19.0408 30.4368 
-17.9586 19.2981 30.1728 -17.1683 18.7719 29.4466 -16.7345 18.5816 29.0616 
-15.7429 18.1005 28.2567 -14.4937 18.2954 27.4295 -14.5527 18.0932 27.4393 
-14.7756 18.1031 27.5554 -14.3756 18.1031 27.3382 -14.2188 18.103 27.2369 
-13.4024 18.239 26.8536 -13.4332 18.1033 26.8373 -13.5756 18.1031 26.9036 
-13.1756 18.1031 26.7322 -12.9889 18.1078 26.6394 -12.9391 18.3124 26.6398 
-12.7756 18.1031 26.5477 -12.574 18.3055 26.5087 -12.5756 18.1031 26.4886 
-11.9794 18.2179 26.4372 -11.8266 18.1056 26.4323 -12.2246 18.1026 26.4352 
-11.7847 18.3042 26.4464 -11.5731 18.0726 26.4484 -18.597 18.3048 31.5588 
-18.6083 18.1031 31.6365 -18.642 18.102 31.8703 -18.5756 18.103 31.4367 
-18.5315 18.1031 31.2365 -18.4514 18.1031 31.0365 -17.6698 19.4869 29.8459 
-17.2848 19.4575 29.4959 -16.9456 18.7876 29.2469 -16.5285 18.5718 28.8996 
-16.1647 18.5518 28.6159 -15.743 18.3072 28.3174 -14.9286 18.3141 27.6781 
-14.0245 18.3003 27.1431 -13.8981 18.1024 27.0426 -13.5778 18.316 26.9335 
-12.7647 18.3052 26.5686 -12.2184 18.3061 26.4522 -11.613 18.3054 26.4646 
-18.6536 18.3017 32.1166 -18.651 18.1015 32.4171 -18.6398 18.3031 31.8365 
-18.5277 18.2977 31.2308 -18.4443 18.3081 31.0246 -18.497 18.7687 31.0371 
-18.3714 19.0901 30.7437 -18.1652 19.3955 30.3949 -17.9472 19.4719 30.1277 
-16.7384 18.9843 29.0738 -15.9284 18.626 28.4302 -15.5206 18.097 28.0644 
-15.4105 18.3102 28.0478 -15.3756 18.1031 27.9544 -14.6677 18.6388 27.4821 
-14.2981 18.4981 27.2848 -13.827 18.3032 27.0383 -13.4296 18.6614 26.8447 
-12.7639 18.9822 26.5683 -12.3583 18.7682 26.473 -12.1735 18.8862 26.4519 
-11.9709 18.9543 26.4438 -11.5744 19.0603 26.468 -11.3756 18.1031 26.4947 
-18.6608 18.296 32.5324 -18.6499 18.627 31.6483 -18.5855 18.5084 31.3565 
-17.7505 19.7004 29.8869 -17.5179 19.6971 29.682 -17.0535 19.6903 29.2774 
-16.7508 19.4974 29.0454 -16.4362 18.9762 28.8202 -16.2135 19.2133 28.6376 
-15.7486 18.648 28.2839 -15.1756 18.1726 27.8365 -15.1916 18.3134 27.8739 
-14.9579 18.8203 27.6583 -13.9095 18.5069 27.0592 -13.8932 18.6994 27.0488 
-13.4741 19.0483 26.8483 -13.0251 18.8746 26.6635 -12.5726 18.9995 26.5184 
-11.7801 19.0093 26.4488 -11.4068 18.3123 26.4997 -11.1756 18.1031 26.5601 
-18.6254 18.1029 32.7372 -18.6999 18.5163 32.1972 -18.673 18.593 31.8448 
-18.5768 18.8009 31.2291 -18.5672 19.2805 31.0379 -18.3742 19.4389 30.6491 
-18.1713 19.7168 30.2882 -17.9767 19.703 30.0918 -16.5086 19.4902 28.8614 
-15.9835 18.9406 28.4623 -14.676 18.9223 27.4624 -14.3812 18.8269 27.2992 
-14.2133 18.7644 27.2221 -13.8965 18.9355 27.0387 -12.9781 19.2247 26.6373 
-12.5727 19.7046 26.5275 -12.1841 19.465 26.473 -11.9809 19.4938 26.4666 
-11.777 19.496 26.4678 -11.366 19.0719 26.4982 -11.1756 18.3031 26.5683 
-10.9886 18.3115 26.639 -10.9735 18.1048 26.6369 -18.6182 18.307 32.9164 
-18.7 18.503 32.4365 -18.6983 18.9831 31.626 -18.6324 18.8327 31.4396 
-18.4913 19.4283 30.8367 -18.4057 19.7063 30.5819 -17.8963 19.8903 29.9455 
-17.5633 19.8879 29.6677 -17.3241 19.9023 29.4757 -16.5732 19.8492 28.872 
-16.3614 19.246 28.7605 -15.9639 19.5248 28.4214 -15.7352 18.9325 28.2448 
-15.5018 18.9226 28.0536 -15.3272 18.7141 27.9468 -14.6793 19.4083 27.4585 
-13.9106 19.3798 27.0446 -13.1997 19.3559 26.7199 -12.7686 19.8147 26.5748 
-12.3764 19.692 26.494 -11.5756 19.3031 26.4753 -11.1773 18.61 26.5493 
-10.7756 18.3031 26.7597 -10.7756 18.1031 26.7507 -18.5767 18.1004 33.0681 
-18.6794 18.4881 32.7155 -18.7242 18.6875 32.1931 -18.7529 18.9587 31.9571 
-18.643 19.2725 31.2268 -18.5933 19.5072 30.9864 -18.2301 19.8867 30.276 
-17.0951 19.9032 29.2846 -16.2495 19.6259 28.6364 -15.7205 19.4947 28.222 
-15.1841 19.0036 27.8219 -14.9736 19.3976 27.663 -14.3634 19.3757 27.266 
-14.1621 19.4779 27.174 -13.5334 19.5779 26.8468 -13.0652 19.8844 26.6656 
-12.5756 19.9031 26.5162 -12.1045 19.6989 26.4634 -11.4539 19.5005 26.4828 
-11.3008 19.2931 26.5179 -11.1851 19.0018 26.542 -10.7748 18.6004 26.7263 
-10.6562 18.3067 26.8527 -18.5663 18.2987 33.1894 -18.4694 18.1061 33.4338 
-18.5921 18.4088 33.1745 -18.7401 18.8016 32.5136 -18.8143 19.2721 31.8575 
-18.7021 19.1978 31.4423 -18.5764 19.6992 30.8361 -18.5586 19.9376 30.6416 
-17.8763 20.1631 29.7945 -17.5299 20.0774 29.5738 -17.1523 20.0815 29.2842 
-16.8508 20.1026 29.0579 -16.1077 20.0097 28.4873 -15.5017 19.1549 28.0378 
-15.2866 19.4962 27.8864 -14.7413 19.6444 27.4956 -14.3736 19.8198 27.2785 
-13.9221 19.8653 27.0259 -13.7756 19.503 26.976 -13.5107 19.8967 26.8337 
-13.1348 20.1166 26.6688 -12.7721 20.177 26.5227 -12.3802 19.978 26.4613 
-11.569 19.7548 26.4424 -10.9486 18.703 26.632 -10.6648 18.1031 26.8365 
-18.364 18.4091 33.8602 -18.3757 18.1031 33.707 -18.6747 18.7903 33.0419 
-18.7015 18.7624 32.8415 -18.7934 19.0694 32.2362 -18.8562 19.359 31.9671 
-18.8074 19.392 31.6317 -18.7927 19.512 31.4224 -18.7461 19.5799 31.2314 
-18.7371 19.774 31.0494 -18.5583 20.234 30.4261 -18.1768 20.2193 30.04 
-16.439 20.1021 28.7256 -15.5524 19.6404 28.0769 -15.0022 19.8382 27.6563 
-14.1756 19.9031 27.1718 -13.5262 20.1443 26.8302 -12.5871 20.2052 26.4588 
-12.09 19.887 26.434 -11.3606 19.8106 26.439 -11.1115 19.5054 26.5393 
-10.831 19.2969 26.657 -10.9168 19.0701 26.6398 -10.6247 18.5507 26.8404 
-10.5756 18.1031 26.9252 -10.4681 18.1009 27.0468 -18.3241 18.1031 33.8365 
-18.5204 18.5137 33.482 -18.6094 18.7476 33.2769 -18.7937 19.0996 32.5461 
-18.7241 19.9253 30.8984 -18.7684 20.3173 30.6466 -18.3813 20.2502 30.223 
-17.8832 20.4931 29.6669 -17.7443 20.2886 29.6345 -17.26 20.344 29.2663 
-16.9325 20.3529 29.0402 -16.6995 20.2973 28.8906 -16.2704 20.2933 28.5534 
-15.5998 20.2321 28.0631 -15.2397 20.0907 27.8053 -14.7354 20.093 27.4752 
-13.9422 20.1315 27.0251 -13.186 20.3223 26.6433 -12.6509 20.5076 26.3869 
-12.3652 20.3065 26.3761 -12.1704 20.1985 26.374 -11.8942 20.1031 26.3725 
-11.4905 20.1093 26.3628 -11.1756 19.7031 26.4832 -10.7672 19.065 26.7095 
-10.3551 18.2968 27.1643 -10.1581 18.1036 27.3671 -18.2952 18.4379 34.0407 
-18.5004 18.8082 33.6394 -18.6707 19.106 33.2577 -18.7538 19.2142 33.0365 
-18.8125 19.2949 32.8186 -18.8518 19.299 32.236 -18.9635 19.7783 31.6387 
-18.8862 19.9031 31.2365 -18.8978 20.2771 30.9025 -18.6255 20.4906 30.3603 
-18.2763 20.4936 30.012 -15.899 20.2958 28.2828 -14.3664 20.3042 27.2343 
-13.7253 20.2977 26.8943 -12.9828 20.5269 26.4853 -11.1774 20.0203 26.409 
-10.936 19.7007 26.5367 -10.7816 19.5236 26.6389 -10.5629 19.0294 26.8448 
-10.3449 18.5672 27.1118 -10.1463 18.3008 27.3905 -9.97296 18.3029 27.6179 
-9.81862 18.1069 27.835 -18.155 18.1006 34.2101 -18.3047 17.9031 34.0365 
-18.3546 18.8192 34.021 -18.8464 19.3385 32.6491 -18.8523 19.3091 32.4511 
-18.9431 19.5884 32.0308 -18.9903 19.764 31.8461 -18.9728 19.922 31.4515 
-18.7969 20.4959 30.587 -18.2041 20.7025 29.88 -17.42 20.5221 29.3112 
-17.1672 20.7203 29.0497 -16.7671 20.5214 28.8564 -16.4824 20.5219 28.645 
-16.2185 20.5073 28.4569 -15.6147 20.4965 28.0135 -15.3183 20.2927 27.835 
-14.7946 20.2975 27.4928 -13.4388 20.5331 26.6843 -13.0983 20.8881 26.3991 
-12.7035 20.9062 26.2591 -12.1698 20.5071 26.2709 -11.963 20.3714 26.2927 
-11.0348 20.6035 26.2582 -10.9276 20.0762 26.4286 -10.5756 19.503 26.7383 
-10.464 19.2956 26.865 -10.3605 18.8615 27.045 -10.1489 18.7158 27.2747 
-9.80099 18.2974 27.8696 -18.1143 18.4795 34.4291 -18.5123 19.2229 33.8102 
-18.7106 19.2734 33.2387 -18.8204 19.5549 33.1204 -18.9788 19.797 32.7128 
-19.0325 19.833 32.2178 -19.109 20.2148 31.639 -18.9864 20.2461 31.1292 
-18.7773 20.7801 30.4325 -18.6232 20.7989 30.2503 -17.9843 20.7491 29.6727 
-17.6632 20.8052 29.402 -16.9533 20.7984 28.8672 -14.6511 20.4787 27.3571 
-14.1201 20.2962 27.0941 -13.8677 20.647 26.8639 -13.31 20.8618 26.4912 
-12.3745 20.8243 26.2056 -11.7864 20.8496 26.1276 -11.3867 20.583 26.2266 
-10.7501 20.017 26.4809 -10.4592 19.8722 26.6347 -10.2859 19.0817 27.0467 
-9.98926 18.7377 27.4492 -9.95815 18.4847 27.5867 -9.70691 18.1031 28.0365 
-17.9268 18.1041 34.6386 -18.1651 18.861 34.443 -18.3024 19.0185 34.2169 
-19.0895 20.0465 32.4234 -19.087 20.0151 32.0267 -19.1256 20.1992 31.8332 
-19.0703 20.2257 31.4368 -18.9708 20.5641 30.8524 -18.8843 20.7031 30.6365 
-18.4169 21.0284 30.0051 -17.2379 20.947 29.0259 -16.717 21.0425 28.6096 
-16.3586 20.7581 28.4606 -15.9826 20.6769 28.2157 -15.2979 20.4981 27.7774 
-15.034 20.4982 27.6043 -14.1569 20.5454 27.0505 -13.6067 20.823 26.6517 
-13.477 21.0969 26.488 -12.6663 21.0553 26.2063 -12.1748 20.9917 26.1195 
-11.962 21.0302 26.0836 -11.5582 20.5684 26.2201 -11.051 20.8837 26.1876 
-10.7891 20.6077 26.3058 -10.4587 19.5378 26.7823 -10.1415 19.3132 27.0575 
-10.1371 18.8921 27.229 -9.79056 18.4996 27.8606 -9.71315 18.4734 28.059 
-18.0822 17.9031 34.4365 -17.9348 18.3982 34.7275 -18.3071 19.3502 34.3692 
-18.6573 19.5268 33.6227 -18.9607 20.1005 33.1841 -19.0678 20.1132 32.7038 
-19.1137 20.1031 32.2365 -19.1941 20.5012 31.9086 -19.1433 20.503 31.4365 
-19.088 20.51 31.2028 -18.9504 20.924 30.6868 -18.8094 21.0985 30.4257 
-18.6219 21.095 30.2017 -17.9962 21.1457 29.6024 -17.7833 20.9461 29.4593 
[...]
CELL_DATA 7210
FIELD FieldData 1
Area 1 7210 double
0.038942718939 0.0084423485926 0.024705110678 0.041023108311 0.0083915351462 0.029141445489 0.032976025617 0.069430571389 0.032505837 
0.032146564307 0.010027244808 0.032420979226 0.049376356851 0.11793737803 0.14088636452 0.053961441307 0.027297339024 0.023088818975 
0.013323361951 0.051415989891 0.11146151319 0.055335419017 0.097870457852 0.05567023066 0.037463231102 0.010239816618 0.015230568372 
0.017200253489 0.0092601230119 0.020439331733 0.034721941559 0.026927425641 0.040475567961 0.0641747095 0.053293039237 0.057348982152 
0.06394991311 0.043741997367 0.10111691195 0.075543199223 0.048023298991 0.053884138181 0.041236294518 0.049919445906 0.030046068954 
0.025800424325 0.020457797146 0.017995425854 0.010881881905 0.019245723144 0.014813803554 0.023971601165 0.021206820568 0.022580305107 
0.025964110594 0.023785731165 0.020428494429 0.020686605433 0.0179851659 0.11635668568 0.06616620224 0.033163604931 0.092164892726 
0.07034295055 0.085460098702 0.04135385307 0.054583073614 0.03633854739 0.054987390274 0.065314999437 0.028064868845 0.051617872954 
0.054006733366 0.037244057081 0.037687278639 0.020153816494 0.050839041387 0.019176940623 0.020325409482 0.03663142909 0.03626329322 
0.024694897141 0.017564750099 0.020196688301 0.054713489825 0.028222936957 0.032649707216 0.020964647771 0.020294739041 0.090185744154 
0.041800681385 0.055085826088 0.034374913178 0.11974676544 0.10365981247 0.055437880518 0.052718314906 0.059958398046 0.047014703476 
0.042708031106 0.031051700442 0.01970737546 0.08497106315 0.055425814297 0.02259499893 0.026909161236 0.039944965122 0.10864285367 
0.063776764019 0.067634370331 0.083241431744 0.071419896903 0.071394284557 0.065138692265 0.024289357545 0.040811581435 0.028169048634 
0.045673335758 0.035225559799 0.022735412799 0.045463529747 0.037905828624 0.068397552146 0.028569709154 0.043235365889 0.058187474141 
0.15551860136 0.068582774665 0.080253681016 0.094512833484 0.1013390483 0.039453889048 0.047066252369 0.027794409824 0.023337687911 
0.08481872084 0.059905189553 0.045928790745 0.02300483841 0.0281351054 0.090909137553 0.095517631374 0.082914789794 0.068649976178 
0.075936097988 0.051331736446 0.074360473984 0.067166544393 0.07272169544 0.078811374169 0.022008400796 0.022064955302 0.031294088659 
0.045807973456 0.040924813187 0.029073538648 0.042594561606 0.033325964273 0.051608929381 0.0874559718 0.059830807478 0.053927886543 
0.035965246096 0.033145582916 0.072892070975 0.16233919356 0.078177849295 0.10109003854 0.10139822304 0.036917992084 0.037172939478 
0.073201307076 0.019914612047 0.083202803167 0.048560637904 0.063519779651 0.059437180546 0.035949608567 0.05989245008 0.092087954086 
0.1288319704 0.045811113173 0.069759105101 0.076975481741 0.054659283178 0.059098830366 0.051796828577 0.0501928602 0.079758317418 
0.024149915975 0.022361006636 0.038511044894 0.024600008569 0.041759418875 0.035325023015 0.043279298564 0.033946299841 0.052275172405 
0.053209049402 0.047084196952 0.038587237292 0.046050375095 0.061436264959 0.032602701027 0.029967301294 0.030199439991 0.064734079601 
0.091085135466 0.054572324473 0.035749678906 0.027504599904 0.090091357327 0.04721691752 0.11378343974 0.056373181254 0.10215405588 
0.08344672619 0.048006483899 0.027910814568 0.035658016399 0.043075019111 0.10379158285 0.10102211358 0.044895106771 0.092891583028 
0.083528713166 0.091869213584 0.087140476038 0.055020986062 0.049651665023 0.024398757153 0.025571464674 0.083317165467 0.037044829272 
0.019990960459 0.025274161746 0.022854213422 0.034506282553 0.036889609144 0.028581055432 0.020667768528 0.030490257313 0.063684489039 
0.036173279491 0.051604691225 0.048492817037 0.022204952052 0.030151497535 0.033602545609 0.027741086172 0.04231902048 0.03007023512 
0.031925985082 0.070141028015 0.065680443805 0.020634202201 0.072467826764 0.092566466794 0.092871818535 0.043230083812 0.054580444083 
0.057817852962 0.10351165211 0.089884262596 0.094048175517 0.051682922107 0.12476009836 0.062083158744 0.11812615613 0.088564850755 
0.072009734632 0.099121878324 0.020025513896 0.019785392919 0.031720762089 0.0226279687 0.021053339408 0.031668012801 0.031115014592 
0.036133482709 0.030757668117 0.036513697761 0.015133650753 0.037716476935 0.028111131144 0.034452153178 0.042790368785 0.043843604044 
0.059663422656 0.053104613577 0.035072513953 0.042309336826 0.023335989558 0.023722744204 0.043033225818 0.056160979731 0.041645354724 
0.063361533718 0.029566015086 0.027174655186 0.075796861352 0.099779621305 0.072733837807 0.079122913314 0.074249761245 0.084800089892 
0.035162055437 0.049369706102 0.057691670255 0.1102532964 0.042700228521 0.081897496798 0.07560390361 0.06866298728 0.011259352011 
0.059789782543 0.12671690525 0.033771760375 0.036444488774 0.029047654612 0.039387633488 0.063678525495 0.041780594006 0.028104946475 
0.022968190493 0.048104600601 0.046042771843 0.040429262948 0.022628588781 0.014278360995 0.04477043877 0.012591252778 0.015546666771 
0.084411107072 0.048068043243 0.059733422253 0.051810113321 0.022515567377 0.048760365119 0.040942407463 0.036942370618 0.04410814481 
0.032325275256 0.038648416128 0.084745900872 0.083552682981 0.059665201228 0.044196054277 0.043598745241 0.034697283602 0.067413699026 
0.061168028699 0.09143643654 0.058551765028 0.045387232956 0.085453434465 0.083891129202 0.065593231871 0.056747809455 0.049890936737 
0.061982297046 0.036940383101 0.055546412456 0.0053881419535 0.058889051727 0.048504546967 0.071016208593 0.030008605785 0.031154759886 
0.028525020243 0.050574468539 0.030049535072 0.03642818664 0.071631870344 0.051301666128 0.037916775431 0.023608285522 0.012820292297 
0.016443823033 0.021574757102 0.085842736114 0.063295144842 0.043659420131 0.026323914568 0.050594793219 0.046436528386 0.057164475094 
0.01718153565 0.034013478134 0.032853085258 0.036300861126 0.027390803569 0.037959213516 0.05672327625 0.05335592512 0.052403229168 
0.06918585395 0.036767265904 0.06543920825 0.049221073306 0.052418757465 0.050725073339 0.1993245087 0.074763541941 0.09415469246 
0.070314638777 0.094479132549 0.048275662145 0.038637402381 0.12318226156 0.043982955543 0.042215970817 0.031354554506 0.037916367501 
0.043240504022 0.071296191514 0.035741234467 0.034537155283 0.035346864847 0.052298804687 0.029493357446 0.038389879269 0.043734416001 
0.053354249534 0.043242010351 0.043433442848 0.029780905114 0.068851976273 0.048908489507 0.043479832812 0.043786125305 0.07657927326 
0.036719661982 0.031870836226 0.07092630998 0.045625966613 0.035911585846 0.035817799094 0.033633967226 0.064441124162 0.041853925698 
0.036764929198 0.038693913941 0.075197182081 0.030213512158 0.074282851503 0.054713875303 0.034049154783 0.053345399196 0.066085263606 
0.062798376549 0.12917041552 0.10357992069 0.076452076663 0.1038336425 0.014420179175 0.061297291983 0.048796553273 0.065179494858 
0.061036850926 0.039289441794 0.034181452022 0.040183491285 0.073011645439 0.042087993157 0.030180140623 0.024679142631 0.039054403247 
0.019020291796 0.059719710466 0.053667686035 0.030316039007 0.057097044578 0.042880923261 0.069914804797 0.037696278058 0.083523728358 
0.051249079423 0.069682211188 0.049209940061 0.059270578219 0.023505531169 0.023872101507 0.034880297548 0.044424728116 0.045238312805 
0.050032669161 0.067888707123 0.056597778353 0.026794943073 0.062516771316 0.056326371967 0.063968442904 0.061337271803 0.078080382589 
0.031337046402 0.063983202874 0.050246198018 0.050469485027 0.039322782807 0.061934832524 0.051484126887 0.11716082589 0.037066964 
0.068906659413 0.054036075562 0.064857868701 0.056880405684 0.032261019934 0.035775823711 0.056817273644 0.10150613312 0.041073895825 
0.047912723466 0.033397345398 0.026664823671 0.048955990335 0.034604819049 0.072363773327 0.058274552965 0.037024555515 0.065133242889 
0.028162328514 0.029162883467 0.077612934821 0.083151853409 0.085126551945 0.11108616336 0.01849926071 0.042290609066 0.042361923182 
0.022859671335 0.060740122252 0.05510853824 0.028507937003 0.048220193072 0.043898891986 0.043217030628 0.043905024335 0.025929632876 
0.04219999459 0.078207521327 0.066851386486 0.04166815947 0.089095122757 0.049727421967 0.062560037155 0.04947585467 0.041506345901 
0.036256876807 0.079392082277 0.048130582941 0.063644976011 0.045872551336 0.022939283489 0.036818778514 0.077018131095 0.088087964679 
0.045053631566 0.088396762834 0.091797248505 0.055243187909 0.033873901853 0.14350132015 0.086637229969 0.072466138631 0.035591276403 
0.060509522301 0.045916540125 0.045181372436 0.043831948279 0.036872843894 0.042008871266 0.050847819413 0.026372147975 0.028033630377 
0.02202417801 0.093031023739 0.089230959173 0.066718563269 0.050771614323 0.034376394733 0.095133775346 0.078155186465 0.077257687022 
0.082813185741 0.042669368417 0.041304756393 0.044451250254 0.032889070989 0.050974319874 0.03620801187 0.047794966424 0.027900380733 
0.036925726378 0.080552231504 0.055454431954 0.057467154896 0.10130968658 0.04654473937 0.034657791423 0.070421820179 0.097055452901 
0.041773410583 0.068479141157 0.04109144618 0.064474587754 0.043962871518 0.023987679616 0.056494128899 0.067903408333 0.063515636304 
0.054677704559 0.030243989892 0.031723159934 0.027855925829 0.051801071623 0.052370508272 0.06093173363 0.044871681078 0.041697175012 
0.051208635999 0.068782979869 0.054253011554 0.066728887923 0.023559525021 0.016368289097 0.044052718819 0.031695235857 0.026569048649 
0.021649971067 0.04702321954 0.032550512245 0.037141034124 0.04942903405 0.054948680603 0.066469552377 0.04258953766 0.091419529521 
0.089235383544 0.074450397884 0.12634207207 0.046743501634 0.026943551886 0.028722456724 0.043078342058 0.030667173812 0.029572055681 
0.044857701773 0.053288140671 0.030729661124 0.028673370599 0.038305349758 0.043497615332 0.11449796453 0.033954677564 0.075760765938 
0.065227326575 0.072200286076 0.077990453233 0.054079815653 0.070693585824 0.058362373166 0.032924679592 0.07479799196 0.074591146582 
0.0472144992 0.096748131843 0.044715397933 0.051797002251 0.051960855241 0.054780505639 0.037567379003 0.073951347178 0.026160424284 
0.050751353199 0.032830737882 0.082233236375 0.040668679456 0.038156522869 0.065254274738 0.044412721226 0.04563941588 0.04065443486 
0.039467008668 0.026756482439 0.046295061137 0.047895084378 0.026727618667 0.028490829537 0.021507238123 0.03736531058 0.032778828224 
0.065017725857 0.10939351048 0.042331603778 0.062757362329 0.084215363844 0.094595946924 0.10262240814 0.054357897688 0.080381839129 
0.029799613458 0.024932274685 0.034696111417 0.034118573965 0.026790703845 0.039172403064 0.031745539276 0.03444071766 0.031934224431 
0.031190719758 0.048373587304 0.043530853105 0.03239296996 0.073298572972 0.054828182044 0.048213905242 0.063954623983 0.035958619389 
0.07397271428 0.083991381252 0.048347193487 0.062611879876 0.06673088718 0.052050914397 0.056732307023 0.045541120078 0.068988239747 
0.12156371619 0.10273063682 0.048923072539 0.066874119367 0.048036179156 0.0414321421 0.043381874546 0.036042168314 0.038642686534 
0.091793335092 0.027577228562 0.030781658074 0.083662068821 0.053011275203 0.066527045896 0.077919796221 0.037073474786 0.011305393139 
0.049810063207 0.032270471908 0.020033147058 0.020406625453 0.022929447745 0.017959946117 0.019125918597 0.053421581084 0.044062350409 
0.052028581048 0.023891013037 0.044685845359 0.068396727112 0.064372777832 0.065433315089 0.050754316286 0.050038964737 0.035020001815 
0.049722800968 0.019746989146 0.042556447895 0.035170029548 0.023025950419 0.026434507334 0.021289676737 0.02371102218 0.020511143907 
0.035478618246 0.027613710391 0.021669358734 0.030301211991 0.015137469841 0.038938800636 0.083824039706 0.075684426007 0.092218076902 
0.10572443324 0.063131900968 0.044886172603 0.066915933425 0.052572355003 0.077220758446 0.064197507248 0.061354696844 0.050419705612 
0.02334608299 0.029482531854 0.040377866366 0.049307555113 0.055110495592 0.020800944185 0.037340625285 0.067471764026 0.046939008402 
0.038359316643 0.037472274137 0.047191289902 0.058660286437 0.038590549997 0.056091926937 0.064318465632 0.031604412489 0.02960382144 
0.064445841839 0.03530711166 0.063975775616 0.045156198893 0.017450889231 0.021192756562 0.02855373578 0.03340253639 0.029894955642 
0.034486762538 0.0082935722806 0.037024713487 0.015286841024 0.023518652811 0.02050557746 0.02568363938 0.026197030645 0.021143756284 
0.030503149339 0.034654113661 0.016351202802 0.025856692785 0.038576182748 0.021240120531 0.022745648004 0.018856102745 0.021048679743 
0.028956361817 0.03464652717 0.027140287173 0.026636832714 0.024087516835 0.048730284353 0.019235126621 0.03251450008 0.028765359427 
0.080156839742 0.080840636722 0.044436413791 0.033786693862 0.039925411399 0.040106902015 0.01874293196 0.026142583668 0.026189768318 
0.038137296523 0.077577425054 0.069792096294 0.066089396844 0.064114578331 0.069637369725 0.0317094013 0.034547489305 0.046697017545 
0.029930357802 0.024670944711 0.042092998908 0.033974866072 0.028594209525 0.037987641527 0.02359435423 0.022196602192 0.031730459458 
0.023212962221 0.055584292705 0.033072802682 0.020926653904 0.022300649101 0.041314317901 0.038496621815 0.046263604242 0.04973978271 
0.041687543028 0.061004383921 0.05959291175 0.066078962271 0.052409634352 0.018300683954 0.1034774809 0.060767616784 0.046946120159 
0.033566505046 0.037939122368 0.03124021367 0.024338829305 0.057881144262 0.045036700012 0.021694902414 0.025566791932 0.044960754901 
0.046357927551 0.086105152992 0.042007959852 0.033438428719 0.069374853734 0.061365392651 0.073340967478 0.045992549994 0.052147185523 
0.020988955101 0.025844851491 0.072069699573 0.052362934039 0.041296788995 0.041156290367 0.058424917878 0.042518500462 0.047797902837 
0.066566854477 0.052257818481 0.10454265084 0.050944478486 0.12412449859 0.064452180701 0.043795821028 0.055241378114 0.032675386372 
0.021715625939 0.047790503367 0.033428809626 0.031244045312 0.02254660605 0.041048291332 0.02435784188 0.036350063648 0.018743101219 
0.029568423708 0.023174210935 0.020354206268 0.024645836047 0.017992229578 0.025619407023 0.02505084495 0.018243723988 0.021091444296 
0.020059450066 0.023018292622 0.023802844037 0.030847868503 0.023354375255 0.024695962589 0.033039847325 0.021511146645 0.019340885489 
0.010328231192 0.051306611567 0.029539918021 0.039804186418 0.043936685886 0.045773701377 0.038226117298 0.029354609083 0.044137620274 
0.027106941885 0.042895032844 0.022527387297 0.057010211769 0.074516364614 0.053262594761 0.074803097459 0.062471781437 0.042822174188 
0.032299191133 0.029026160994 0.062678077908 0.036484649803 0.051561204858 0.031962298974 0.038662941624 0.043512157956 0.025921653504 
0.028841302247 0.021356936365 0.037471109487 0.026868367978 0.040021288631 0.052961863882 0.032192143591 0.017091388255 0.036144124448 
0.046957649575 0.041635705482 0.041759830022 0.048002613762 0.032204985378 0.062344805272 0.044585547674 0.034155591466 0.02990782758 
0.058960035955 0.13348359801 0.031141179193 0.021800075494 0.02014830241 0.032358445315 0.015933054694 0.030601698178 0.027031218227 
0.017624632907 0.027389295808 0.032653336801 0.029611834954 0.053254209385 0.044443290545 0.065830069041 0.088101547902 0.10125423439 
0.031882627864 0.057943578981 0.024285800247 0.046845952448 0.052737153493 0.020165988422 0.03873073087 0.062132326858 0.035847161256 
0.057363785232 0.036306836874 0.031659435989 0.028117971917 0.068976571583 0.068590112642 0.021676956382 0.024137189218 0.045957704425 
0.025696696389 0.041969769254 0.045364152789 0.066790840479 0.037829164843 0.019675596716 0.021240171866 0.040461346892 0.016550077881 
0.020114772816 0.042385690397 0.024283188503 0.017972408162 0.072625704572 0.020373140763 0.02102464611 0.020994699765 0.038270464282 
0.026387352389 0.033200005479 0.040746942875 0.037613889087 0.024060837793 0.038205835057 0.049564343115 0.066775727538 0.031617879032 
0.029250544675 0.048046813012 0.065605166 0.065323630152 0.030129876593 0.074580915212 0.13624518372 0.029567182725 0.029053503623 
0.020195221806 0.021936575169 0.022430713595 0.028221240408 0.021551985076 0.035419893221 0.018198599475 0.029104408289 0.029431013301 
0.040954352595 0.028918812279 0.01489828982 0.045403433138 0.082427082962 0.099644814408 0.063276223807 0.073759639174 0.046188550172 
0.022923421156 0.033799237338 0.07291982278 0.028800848748 0.064161999189 0.020960059799 0.023959759158 0.039031093946 0.030013208684 
0.044125292713 0.026689504081 0.033076168325 0.031308446318 0.032305682015 0.01788295223 0.024321902112 0.045361166628 0.051341977404 
0.047218669323 0.036506405446 0.02027252956 0.020888536096 0.049110160434 0.028642963503 0.01975393746 0.044577208651 0.024322066708 
0.02073035137 0.0033201067256 0.027054417842 0.023497986231 0.038000257925 0.026262134011 0.020520635199 0.045120947467 0.046219143565 
0.02579021595 0.017346617282 0.019162576205 0.039879646613 0.039544725585 0.040763419648 0.13855760048 0.061457683844 0.029722443724 
0.040035610664 0.054416487254 0.21543287636 0.018838516161 0.024390713097 0.023281415632 0.02274848549 0.015507868354 0.022566891269 
0.010413663345 0.024004180833 0.026353286951 0.016662223459 0.025475812705 0.018408568892 0.028585280951 0.033078630793 0.062560982206 
0.061653621261 0.076204468627 0.17004352179 0.058283399328 0.049185953519 0.057800666286 0.049680955065 0.062111665952 0.029521094897 
0.030248693117 0.032242354274 0.036575807869 0.035489042591 0.017737928844 0.026152900458 0.025829284586 0.035909128895 0.027486065311 
0.020659504299 0.016310471109 0.079013671274 0.022296064826 0.039752634675 0.032179744232 0.038797456221 0.02153158051 0.035959580576 
0.039378074416 0.036338389442 0.036709919496 0.031265812844 0.024704543474 0.026030383558 0.045354544348 0.02355971193 0.094402671616 
0.040389730958 0.088355146571 0.064088129855 0.11223611156 0.064219999269 0.024942661899 0.033536228331 0.033209749851 0.070582542356 
0.051573294348 0.040623110572 0.045733791272 0.020922609345 0.022756235023 0.012052933622 0.024398490747 0.013959765316 0.025381644433 
0.027610435088 0.006696913668 0.012177865103 0.022508502832 0.021286808901 0.037466471784 0.039823633462 0.066956875996 0.060854091718 
0.044307801032 0.034275027202 0.028739879417 0.025982415537 0.022895704258 0.02904606501 0.024636296332 0.038626839247 0.022720928374 
0.024842590645 0.030694867502 0.029982464989 0.065594754581 0.067122093696 0.017536957865 0.037618464319 0.047848348076 0.023700276321 
0.036269655322 0.033696706687 0.043889141566 0.035986332002 0.034665301779 0.059515426354 0.066823843503 0.11399293609 0.075085482449 
0.016212311378 0.037507723162 0.039008856424 0.058992867575 0.064914599032 0.068464509674 0.045129762398 0.024291201774 0.014070052398 
0.0355959243 0.012916069698 0.017212306064 0.022039632286 0.028628693874 0.023248522409 0.023968620635 0.034607975343 0.022898836201 
0.02589444056 0.039872050233 0.031827217114 0.034435409254 0.023119210526 0.026284558398 0.021240639683 0.029563823252 0.05171799489 
0.031239443518 0.065959571278 0.038230107093 0.034147272461 0.028967132598 0.04130661033 0.027889353523 0.040667292339 0.046237943952 
0.080831885495 0.076327974335 0.12951143027 0.042681534597 0.1152288525 0.083123617952 0.036263833193 0.028506145977 0.061461013713 
0.072190131039 0.072106862756 0.090025537863 0.043343897561 0.032910503142 0.022659993778 0.032570535215 0.011149507593 0.021622225372 
0.022855660806 0.026374994606 0.029150698675 0.017474786833 0.01794537384 0.023701242585 0.014524336566 0.02686124238 0.026207230614 
0.0098385064327 0.02399857656 0.023057070688 0.032347457689 0.027730618419 0.037995516929 0.036583919567 0.019023116433 0.043643208469 
0.036368591891 0.016260839437 0.06562521213 0.064417457639 0.10364465653 0.18738442377 0.028278864328 0.12557175045 0.076347979696 
0.031668651686 0.026638246297 0.030525037023 0.026172336365 0.030969671787 0.076364895269 0.10219011488 0.037777388656 0.019752923454 