# vtk DataFile Version 4.2
vtk output
ASCII
DATASET POLYDATA
POINTS 3759 float
-12.7656 18.4449 26.6148 -12.5822 18.292 26.5404 -12.8221 18.2923 26.6164 
-12.3888 18.5043 26.5139 -12.3822 18.292 26.493 -12.9705 18.4993 26.6973 
-12.9822 18.292 26.6828 -13.2557 18.2904 26.8172 -12.5778 18.4992 26.5542 
-12.1772 18.5271 26.4812 -12.1822 18.292 26.4591 -11.9761 18.4944 26.4644 
-11.9285 18.2927 26.4427 -11.7988 18.4823 26.4679 -11.4975 18.2917 26.4786 
-11.4463 18.4875 26.5084 -11.1822 18.292 26.5465 -14.5822 18.292 27.5397 
-14.1823 18.2935 27.3123 -14.3822 18.2583 27.418 -13.3622 18.5033 26.8668 
-13.3822 18.292 26.8736 -12.8005 18.9462 26.6202 -12.5736 19.1762 26.5503 
-12.1857 19.053 26.4772 -11.2011 18.5207 26.5501 -10.996 18.4038 26.6175 
-10.9476 18.2924 26.615 -14.7657 18.4932 27.6437 -14.7724 18.2918 27.6475 
-14.246 18.481 27.3525 -14.0216 18.2925 27.2171 -13.6907 18.4931 27.0315 
-13.7758 18.2899 27.0639 -13.5822 18.292 26.9667 -13.0052 18.9779 26.6923 
-12.3873 19.1559 26.5107 -11.7742 19.0522 26.4647 -11.4374 18.8314 26.5038 
-10.7822 18.292 26.697 -14.9999 18.492 27.8125 -14.9945 18.2948 27.8117 
-13.9818 18.4925 27.2075 -13.3746 19.085 26.8434 -12.9176 19.433 26.6477 
-12.3826 19.8606 26.5171 -12.1936 19.6584 26.4988 -11.9843 19.1152 26.4644 
-11.1737 18.9621 26.5525 -10.9442 18.7539 26.6137 -10.7822 18.492 26.7175 
-15.1822 18.292 27.9605 -15.043 18.8462 27.7876 -14.4596 18.7345 27.4461 
-14.1611 18.6979 27.277 -14.0295 19.0011 27.1912 -13.75 18.9798 27.0229 
-13.2797 19.6285 26.7822 -12.924 19.8565 26.6496 -12.5813 19.8753 26.5489 
-11.7519 19.4577 26.4786 -11.5903 19.1464 26.4778 -11.3823 19.191 26.5056 
-10.7823 18.8204 26.6848 -10.6352 18.4958 26.8245 -10.5959 18.2916 26.8251 
-15.2671 18.4901 28.0251 -14.7831 18.6936 27.6298 -13.6598 19.3603 26.9729 
-13.3572 19.4122 26.8227 -12.5815 20.1352 26.5171 -12.0565 19.8887 26.4698 
-11.9793 19.6488 26.4852 -11.1505 19.4811 26.549 -10.9844 19.2831 26.6045 
-10.7822 19.092 26.6796 -10.303 18.4926 27.1649 -10.3965 18.2909 27.0344 
-15.2589 18.292 28.018 -15.5303 18.7326 28.1779 -14.7811 18.9644 27.616 
-14.107 19.3005 27.2151 -13.5758 19.7107 26.8977 -13.5282 20.0909 26.8659 
-12.9202 20.0885 26.6371 -12.3822 20.092 26.4805 -11.7822 19.692 26.4807 
-11.496 19.4915 26.4933 -10.5815 18.9183 26.8185 -10.3751 18.8822 27.02 
-10.2005 18.2896 27.2381 -15.5795 18.503 28.2428 -15.3822 18.292 28.1031 
-15.5811 18.2845 28.2201 -15.1607 19.1796 27.8324 -14.9891 19.1485 27.7189 
-14.7657 19.5471 27.5797 -14.5686 19.5614 27.4578 -12.8377 20.2918 26.5725 
-12.2956 20.4592 26.3734 -12.0527 20.2776 26.3905 -11.0243 19.7072 26.5467 
-10.8933 19.4913 26.6216 -10.7822 19.292 26.6866 -10.5675 19.092 26.818 
-10.1792 18.8511 27.2099 -10.0033 18.2884 27.4464 -15.8126 18.295 28.3745 
-15.7882 18.6942 28.388 -15.5739 19.1186 28.1615 -14.2049 19.7356 27.231 
-13.9149 20.0754 27.0679 -13.5479 20.3041 26.8537 -13.1822 20.292 26.7062 
-12.7822 20.492 26.4975 -12.5433 20.5635 26.3983 -11.784 20.1549 26.4023 
-11.6892 19.8909 26.4558 -11.5048 19.6954 26.49 -10.5558 19.292 26.8077 
-10.3678 19.0908 26.9873 -10.1479 19.0939 27.1645 -10 18.4911 27.4637 
-9.86067 18.292 27.618 -15.8069 18.4931 28.4039 -15.8146 19.1284 28.359 
-15.4583 19.519 28.0439 -14.9886 19.6511 27.7067 -14.8933 19.972 27.644 
-14.5787 20.0128 27.4291 -13.9176 20.2913 27.0455 -13.1677 20.5111 26.64 
-12.3777 20.8434 26.2529 -11.7679 20.5345 26.2825 -11.2234 19.8801 26.4791 
-10.7799 19.7409 26.6075 -10.483 19.4823 26.8031 -10.3822 19.292 26.9212 
-9.94518 19.1051 27.3435 -9.9805 18.8733 27.3989 -9.85779 18.4832 27.6306 
-9.78196 18.2939 27.7206 -15.9961 18.4995 28.5647 -15.9822 18.292 28.5412 
-16.1248 18.633 28.6641 -15.6775 19.6204 28.2076 -15.1682 19.6628 27.8248 
-14.3032 20.0935 27.2691 -14.2839 20.2869 27.244 -13.8245 20.498 26.9478 
-13.473 20.5038 26.7741 -12.8267 20.7227 26.4344 -12.6147 21.0072 26.255 
-12.1645 20.7823 26.2392 -11.5796 20.3597 26.3313 -11.5003 20.0862 26.4134 
-10.9631 20.3536 26.4015 -10.768 20.1215 26.5001 -10.5606 19.7547 26.6795 
-10.1993 19.2839 27.0543 -9.98211 19.2996 27.2205 -9.76656 18.4917 27.7639 
-9.60793 18.4827 28.0308 -9.58233 18.2774 28.0365 -9.49697 18.292 28.218 
-16.0606 18.292 28.618 -16.3242 18.8335 28.7902 -15.7189 19.9097 28.2328 
-15.2156 19.9077 27.8557 -14.8785 20.2725 27.5957 -14.2455 20.4953 27.1794 
-13.3694 20.7885 26.6249 -12.4359 21.2906 26.1448 -12.2229 21.2703 26.1095 
-11.9918 20.7405 26.2336 -11.5707 21.0138 26.137 -11.3061 20.2458 26.3845 
-10.3752 19.5901 26.8229 -10.1757 19.4731 26.9975 -9.77579 19.276 27.4146 
-9.78528 18.9223 27.62 -9.696 18.692 27.818 -9.52703 18.492 28.218 
-9.38845 18.4911 28.4852 -9.38135 18.2902 28.4646 -16.1822 18.292 28.7233 
-16.1822 18.1175 28.618 -16.3775 18.3014 28.8655 -16.1384 19.0831 28.6152 
-15.97 19.5705 28.4616 -15.1903 20.1746 27.8229 -14.8324 20.514 27.5287 
-14.1426 20.6731 27.0564 -13.7566 20.6923 26.8428 -13.1683 21.0879 26.4229 
-12.7822 21.092 26.284 -12.8562 21.2625 26.264 -11.796 21.2601 26.0634 
-11.4129 20.7825 26.213 -11.1853 20.7002 26.2581 -10.5876 20.4456 26.4461 
-10.3917 19.9151 26.6914 -10.1883 19.7474 26.8568 -9.97469 19.5315 27.1024 
-9.81091 19.4971 27.235 -9.77194 19.1022 27.534 -9.65469 18.892 27.818 
-9.53572 18.692 28.218 -9.33727 18.292 28.618 -9.2824 18.492 28.818 
-9.26085 18.292 28.818 -16.3822 18.1627 28.818 -16.7575 18.5738 29.1375 
-16.3993 19.1066 28.826 -15.9907 20.0261 28.4328 -15.478 20.1248 28.0186 
-15.3237 20.4657 27.8526 -14.605 20.6904 27.3303 -13.9266 20.9029 26.8435 
-13.4089 21.0882 26.525 -12.9166 21.6309 26.2094 -12.3892 21.5672 26.0734 
-11.9779 21.3492 26.0532 -11.5943 21.337 26.0473 -11.4044 21.2589 26.0809 
-10.8449 20.7111 26.3154 -9.58217 19.4879 27.4151 -9.58243 19.2911 27.5841 
-9.57581 18.8964 27.9648 -9.59379 18.7721 28.0129 -9.40664 18.6924 28.4464 
-9.19605 18.4948 29.0908 -9.17877 18.2871 29.0721 -16.5599 18.2615 29.0061 
-16.5895 18.8962 28.992 -16.1615 19.4887 28.6219 -15.5065 20.2723 28.0147 
-15.1562 20.6916 27.6759 -14.5243 20.8944 27.1916 -13.3553 21.31 26.4334 
-13.1926 21.658 26.3022 -12.5986 21.8056 26.0755 -12.1829 21.5184 26.045 
-11.7817 21.6068 25.9939 -11.08 21.0256 26.1897 -10.5954 21.0681 26.2892 
-10.3876 20.5963 26.4626 -10.1617 20.1643 26.6926 -9.64612 19.9023 27.0807 
-9.58576 19.6793 27.2628 -9.5879 19.0749 27.791 -9.487 18.892 28.218 
-9.30828 18.692 28.618 -9.16923 18.7152 28.8904 -9.12279 18.292 29.218 
-17.7553 18.3001 30.0842 -17.5822 18.092 29.8919 -17.7202 18.092 30.018 
-17.4975 18.092 29.818 -17.4015 18.291 29.7564 -17.3822 18.092 29.7038 
-17.3101 18.092 29.618 -17.1607 18.2919 29.5099 -17.1822 18.092 29.4948 
-17.0938 18.092 29.418 -16.6663 18.092 29.018 -16.783 18.2925 29.199 
-16.8724 18.9081 29.2139 -16.6812 19.1074 29.046 -16.48 19.4716 28.8724 
-16.2409 20.0963 28.609 -16.0084 20.2807 28.3904 -15.5811 20.5233 28.0208 
-14.9425 21.0195 27.4024 -14.7206 21.1832 27.1942 -14.1603 20.9764 26.9537 
-13.7252 21.3088 26.6004 -13.133 21.8874 26.2366 -12.7788 22.007 26.096 
-12.3946 22.0816 25.9812 -12.0498 21.8997 25.9609 -11.5822 21.692 25.9897 
-11.3653 21.6901 26.0142 -11.0137 21.2816 26.1469 -10.7919 21.0224 26.2447 
-9.80612 20.1858 26.85 -9.38376 19.4732 27.5941 -9.37563 19.2954 27.7933 
-9.39096 19.0929 28.0597 -9.38421 18.8875 28.402 -9.00281 18.7125 29.2271 
-9.12392 18.4904 29.2602 -17.906 18.092 30.218 -17.9822 18.092 30.3081 
-17.7822 18.092 30.0831 -16.9822 18.092 29.3201 -16.8207 18.0989 29.1895 
-16.9419 18.5658 29.2829 -16.4496 19.8368 28.8093 -15.8274 20.4437 28.2099 
-15.4615 20.7903 27.847 -15.3948 21.1622 27.6405 -14.39 21.2201 26.9855 
-14.1237 21.2929 26.8065 -13.5996 21.6163 26.4782 -12.5743 22.1254 26.0162 
-11.7822 21.892 25.9516 -11.5822 21.892 25.9733 -11.1822 21.492 26.0744 
-10.7713 21.2913 26.2 -10.1936 20.8918 26.4635 -9.99157 20.4472 26.6681 
-9.58476 20.0919 27.0234 -9.32258 19.9012 27.3095 -9.1079 19.6891 27.627 
-9.1844 18.8947 28.6393 -8.98028 18.8831 28.9943 -8.9882 18.2906 29.4584 
-17.9878 18.2903 30.3624 -18.0445 18.092 30.418 -17.5814 18.6283 29.8675 
-17.358 18.5308 29.6679 -17.1354 18.813 29.4449 -16.962 19.4437 29.2571 
-16.7404 19.8266 29.0487 -16.5412 20.0995 28.8375 -16.2157 20.335 28.5296 
-15.6949 20.7604 28.0147 -14.569 21.2962 27.0605 -13.9492 21.4988 26.661 
-13.596 21.8725 26.4448 -13.161 22.2492 26.2112 -12.7822 22.292 26.0734 
-12.3599 22.3265 25.998 -12.1822 22.092 25.9581 -11.9822 22.092 25.9512 
-11.3965 21.8886 26.0158 -11.1822 21.692 26.0551 -10.9822 21.492 26.1181 
-10.5822 21.292 26.2592 -10.3822 21.092 26.3613 -10.1822 20.692 26.5185 
-9.60673 20.4894 26.8482 -9.40743 20.2899 27.0534 -9.21357 20.089 27.2791 
-9.13293 19.4775 27.81 -9.16742 19.2647 28.0588 -9.20892 19.128 28.2445 
-9.18225 19.044 28.418 -9.07402 18.892 28.818 -8.775 18.9068 29.2625 
-8.94195 18.6554 29.3688 -8.90363 18.292 29.618 -18.2078 18.2856 30.6997 
-18.1622 18.0924 30.6187 -17.9923 18.5921 30.3487 -17.7527 18.6589 30.0376 
-17.1409 19.3185 29.4194 -16.412 20.6915 28.5666 -15.9993 20.7774 28.2172 
-15.5777 21.1815 27.7608 -15.0224 21.4921 27.2946 -14.6198 21.4754 27.0446 
-14.2695 21.4465 26.8489 -13.9611 21.6765 26.6435 -13.3574 22.2552 26.2954 
-12.9822 22.292 26.1455 -12.5824 22.2933 26.0179 -12.1681 22.2963 26.0132 
-11.7822 22.092 25.9784 -11.6323 22.0838 26.0208 -10.9822 21.692 26.1309 
-10.7492 21.4927 26.197 -10.3822 21.292 26.3621 -10.1945 21.0916 26.4428 
-9.91477 20.8895 26.6111 -9.95515 20.6892 26.6138 -8.99788 20.0941 27.439 
-8.95512 19.8739 27.6139 -8.94261 19.6685 27.7745 -8.78224 19.1096 28.818 
-8.85248 18.4964 29.752 -18.2757 18.092 30.818 -17.7939 19.0335 30.0644 
-17.3452 18.9318 29.6247 -17.1623 19.6298 29.3962 -17.0758 19.9055 29.2916 
-16.8907 20.091 29.1132 -16.5758 20.3273 28.8166 -16.5576 20.4799 28.7565 
-15.9727 21.2385 28.0083 -15.8031 21.3009 27.8628 -15.5419 21.5388 27.6229 
-14.363 21.7001 26.8524 -13.9901 22.1975 26.6094 -13.5961 22.4504 26.4044 
-13.3822 22.492 26.3016 -12.9822 22.492 26.1576 -12.7822 22.492 26.1134 
[...]
CELL_DATA 7379
FIELD FieldData 1
Area 1 7379 double
0.019301807521 0.021904836415 0.031702535537 0.013336278767 0.020492073027 0.020061756114 0.02294031249 0.023953531567 0.025767872325 
0.041186471714 0.031690895133 0.0080840698799 0.014652899711 0.045203209942 0.023133583936 0.050398837936 0.065403756438 0.056404291109 
0.02389035402 0.01770686034 0.03484198875 0.028751007796 0.013758959987 0.022012490851 0.043192131689 0.017464277113 0.029661978118 
0.021932990425 0.023313472491 0.10215269031 0.054432922193 0.079805103027 0.06207425813 0.066675680477 0.052950168541 0.050665260252 
0.060990960282 0.042630538201 0.023737539539 0.010502984974 0.027229306837 0.029072949759 0.058645209401 0.0299579248 0.034075625735 
0.03763026095 0.11606593713 0.051459000029 0.071623815267 0.067148955594 0.061303860999 0.062888905379 0.064963572048 0.099293236356 
0.057383117714 0.040678396399 0.023334092407 0.023630124348 0.051563446663 0.074411955195 0.032279860778 0.086766240428 0.089884886552 
0.12118677098 0.1144845327 0.050935742338 0.074877942137 0.070300767498 0.067320149191 0.061401220476 0.043325860402 0.03634319054 
0.044677302048 0.055247253025 0.029516274621 0.039541686852 0.018225104748 0.023220966416 0.033919356364 0.061005117191 0.030096180432 
0.037643746814 0.039467741324 0.045155432386 0.079167122781 0.073749982761 0.011654022485 0.097451097326 0.081136812555 0.12491086453 
0.026383046605 0.036014380159 0.057346092046 0.061204180011 0.036309891398 0.036504798498 0.058025941171 0.058570350868 0.024086096236 
0.029996046497 0.048974569192 0.029377977037 0.009491108708 0.093916266152 0.04187896287 0.050221803169 0.054905686459 0.048126306229 
0.093667226301 0.054672719183 0.037968224431 0.1176713448 0.04141116531 0.046764491462 0.023878179489 0.038501647084 0.025481654043 
0.023752719653 0.042650296569 0.034077084597 0.052013874718 0.047551910757 0.053159461744 0.032898104254 0.049136061525 0.093145575881 
0.028794715798 0.025350238155 0.014837558302 0.044474066056 0.11154677624 0.042691592547 0.10956914223 0.22034532965 0.06781136736 
0.086086765312 0.056613438908 0.062743139639 0.07544749221 0.034727855219 0.040533264139 0.065802811256 0.025365087292 0.030546074853 
0.040406181793 0.027372282224 0.0218144898 0.022209039046 0.061838238696 0.051308016888 0.029252703257 0.030450814073 0.038607758569 
0.036810195782 0.10323328876 0.032501314333 0.070479559484 0.096693227411 0.10159666482 0.15412410212 0.082482547441 0.069490987027 
0.03798629309 0.033097768603 0.058021885631 0.054632276935 0.053616269501 0.036666452753 0.028316987224 0.049379647322 0.03000361805 
0.022392717663 0.025691252378 0.025609786168 0.022784964172 0.030054893543 0.033815159619 0.077251261588 0.04318292638 0.022602719597 
0.02793293197 0.027894059174 0.072557574078 0.060330308455 0.10090691806 0.051815747844 0.064828244673 0.050283713693 0.096415846906 
0.12513024983 0.047255379769 0.044659952494 0.039071445509 0.0418127373 0.043192884564 0.054037058636 0.047467577589 0.059626987976 
0.054679669174 0.049749646516 0.027724442638 0.044318820807 0.030098153851 0.044245038937 0.024932700629 0.020788461098 0.026854198953 
0.029774163779 0.033702772483 0.053393299186 0.021017954542 0.01236040165 0.024732120444 0.024766073391 0.043013345792 0.094980918141 
0.077748497131 0.063135036624 0.087975187836 0.051932317834 0.047099923292 0.086015943702 0.061262852031 0.077366686272 0.04517483257 
0.043191150567 0.04098106371 0.037512775699 0.049640587744 0.032069807236 0.051227135048 0.04120272535 0.086101566142 0.038936903548 
0.03491173666 0.04495329442 0.072180171472 0.050049523113 0.028658655449 0.063266208505 0.020245243229 0.023119448737 0.028026956044 
0.028446838472 0.033129535169 0.042220523481 0.01582167213 0.038350364642 0.020808542952 0.011384636694 0.016085491587 0.10206292907 
0.041136947632 0.068741931327 0.048593090258 0.03515698089 0.056756970878 0.029678487416 0.042651475716 0.044011400692 0.050430025187 
0.039568245608 0.04949896445 0.077323213451 0.064132262233 0.050777561401 0.052718668533 0.014063674053 0.065032919195 0.037789741841 
0.048078180543 0.069426018462 0.073770240495 0.045733302083 0.021868562877 0.018521923936 0.022393677238 0.027918232078 0.027784534094 
0.035889190187 0.064430805289 0.01598104283 0.030940989172 0.02063761653 0.027463475839 0.015427561518 0.022459468241 0.071509706027 
0.045985331254 0.1064863484 0.090917775989 0.04905086059 0.056314025449 0.092208411962 0.072822523663 0.044762387131 0.039812570727 
0.058236311802 0.10113925415 0.036835195222 0.060373664017 0.049503767339 0.042677315211 0.08204833521 0.081760694055 0.054985043016 
0.034231131427 0.043426509758 0.075692991012 0.055300162904 0.052278771573 0.034658779656 0.037800173357 0.02276651708 0.034930079255 
0.033222722443 0.024379168788 0.024666481156 0.05314996741 0.02251826997 0.031879185256 0.020421459236 0.030365243056 0.016049269089 
0.021518415808 0.025346395714 0.027434437663 0.04159581326 0.13643191186 0.044977430854 0.095500258188 0.077152370216 0.068481332708 
0.050280105918 0.063215781466 0.083734843887 0.065681076784 0.051147349118 0.043790709064 0.057114578146 0.041610180857 0.079918757979 
0.011939744364 0.082469579651 0.031195300312 0.077802161716 0.058580554008 0.034752180656 0.040143392954 0.070550806736 0.059427260119 
0.063737069405 0.065571327924 0.087960134247 0.035969234683 0.033520951837 0.036116295935 0.025434013054 0.036023044996 0.025568834721 
0.021520355005 0.016898995069 0.032312716631 0.030375794474 0.026258499414 0.030273278322 0.034866373086 0.028777226777 0.027912936132 
0.017374535024 0.040724321792 0.060728610742 0.04306443646 0.067787744979 0.05156711728 0.056989141507 0.055240469741 0.045505406695 
0.048225289647 0.069840299068 0.059589863554 0.059827094959 0.051170306458 0.095475586612 0.030162988407 0.047233260522 0.044863145456 
0.054102801884 0.10256691971 0.036408153732 0.027723470376 0.029923585188 0.032828349855 0.035089079189 0.030910769884 0.081951175517 
0.04282922116 0.057552180704 0.08384548178 0.075137710295 0.052714595211 0.096538710313 0.02590803434 0.032317432485 0.030859304545 
0.037566737082 0.031172579163 0.016350373712 0.015711131186 0.022486767858 0.026818067082 0.019893149091 0.035570856183 0.034100375067 
0.016291372481 0.019594698809 0.011835943327 0.016257733592 0.011206752829 0.017889507249 0.011812611626 0.027692452954 0.0171516884 
0.042632621565 0.059303018468 0.037807484802 0.074782606312 0.091424938079 0.084539858146 0.026419736851 0.037100633358 0.062907654101 
0.11355767102 0.039954477203 0.067641259497 0.042399174929 0.1009496668 0.046647725657 0.098227621995 0.035024509662 0.050904788074 
0.055314806246 0.05463684683 0.051462365807 0.064407670948 0.035399938297 0.043285361521 0.051168287514 0.047175122802 0.031663260842 
0.066925506329 0.087107419241 0.087330912519 0.11143636998 0.06483546375 0.028887370716 0.030507195758 0.038901186602 0.034712609378 
0.017173334204 0.02096268411 0.019725399026 0.034407770395 0.046303471967 0.018418065891 0.012401991892 0.019142533909 0.0094047529881 
0.048746817393 0.034783638151 0.01494573523 0.021970701011 0.022751010004 0.02786536852 0.06919717013 0.039819723958 0.037429896752 
0.065268981442 0.073714353759 0.0949808473 0.039939896953 0.073882410698 0.026078522174 0.041971370509 0.048317524213 0.052668171811 
0.11288144423 0.080392102298 0.062853383507 0.065376307593 0.047131350319 0.092963796848 0.063461070064 0.073992203267 0.049837810959 
0.062449409192 0.032994707124 0.030470147916 0.079773777239 0.038597169505 0.020013042472 0.03928511021 0.044410308813 0.044561363064 
0.038466664017 0.02731478073 0.082417266515 0.077202066907 0.056312431032 0.029914096219 0.049522641869 0.076495324169 0.03301892184 
0.045492676569 0.03287076123 0.026979207643 0.033545025417 0.033857836688 0.039323407628 0.023469757166 0.027511731728 0.012599782402 
0.036592659294 0.081009952963 0.041611013787 0.047962758944 0.031326024212 0.055256945036 0.07781177659 0.10865372128 0.068678120718 
0.049801458966 0.032253719726 0.027868529456 0.041988589518 0.03688049605 0.077717131921 0.066322969119 0.019457495062 0.049601847485 
0.045768681674 0.051835174875 0.065317357908 0.070252383747 0.031112434702 0.023195935361 0.021292282049 0.02601958314 0.028993303244 
0.019108202874 0.021643972718 0.018844814191 0.021833360932 0.033825106769 0.022416937013 0.02538444515 0.023218176246 0.038337130784 
0.063415558702 0.037484046703 0.046589965479 0.041111871207 0.075105341834 0.043583528014 0.038265713929 0.043129879469 0.043706800064 
0.0326295771 0.022369827456 0.02116048814 0.040983224618 0.020365327735 0.018381327549 0.02246204653 0.039898278539 0.054720283716 
0.043996905682 0.040791077903 0.07231172196 0.074549801292 0.087961377516 0.070776558604 0.11408820026 0.050396580263 0.046017003162 
0.10221299872 0.061934077637 0.060255076266 0.044903149399 0.13241175904 0.02036460157 0.029393552625 0.030867125093 0.033116892038 
0.035456574055 0.051763609057 0.095585696564 0.03878568477 0.031673200363 0.030396610834 0.017419386938 0.0188862026 0.024140987005 
0.022596110134 0.019251716051 0.020360893152 0.020006178799 0.019014525514 0.018660843961 0.021474543122 0.020511196661 0.026285778558 
0.02489564002 0.019970446583 0.025444991754 0.02249532471 0.020533561282 0.03220153946 0.030842104614 0.053017562786 0.062429269621 
0.048017304349 0.027765091574 0.052330831789 0.028127652464 0.045168628801 0.028633795007 0.024779021785 0.065280628958 0.034810382442 
0.034088675238 0.059025743876 0.024476887551 0.054755049802 0.057251669011 0.022170467787 0.060794830637 0.069339567902 0.044503077952 
0.06204629885 0.057766947569 0.070648197885 0.037864116666 0.091547567697 0.060278338646 0.053224374647 0.062158061403 0.10031080477 
0.090291562743 0.069429529914 0.041485275949 0.11663651354 0.072763281944 0.036264163589 0.049937820779 0.040484893778 0.10966999609 
0.077689987643 0.025223119268 0.019161869998 0.021635635558 0.022381654009 0.024365747099 0.027611471105 0.018904650798 0.01880852699 
0.0078482795882 0.015743430362 0.038510023245 0.024501238474 0.022240781474 0.017657455547 0.02452860212 0.019259224679 0.016904675182 
0.0094590594541 0.020601461293 0.031631599663 0.024814460095 0.020570564337 0.029146718818 0.029879032706 0.013603021349 0.056706434061 
0.024872483791 0.035193842495 0.041534848254 0.057762319112 0.045733180034 0.099346080838 0.12537864543 0.047695842518 0.03967486308 
0.02902568893 0.015398377362 0.021840310994 0.051235061204 0.075157938593 0.076876404578 0.06618256493 0.079502560142 0.052872281831 
0.046121098574 0.049045622193 0.041215650268 0.036993191591 0.035899286324 0.040495056243 0.071713660441 0.0455693453 0.063622905821 
0.051830303858 0.064412085301 0.051808307829 0.043370253556 0.048323077554 0.044985343481 0.12461909093 0.070861769669 0.053055706795 
0.028612634979 0.02640330505 0.025282216981 0.020518088353 0.020413540007 0.021787043868 0.016455007006 0.036317554929 0.020478736542 
0.019540117328 0.0060561451289 0.047920676118 0.0282377136 0.019890911793 0.017333727052 0.019271798104 0.024047485451 0.0070461545599 
0.024279421135 0.026260864387 0.019398615816 0.024179632484 0.028825841796 0.028356469733 0.028135440036 0.029295521299 0.015527333303 
0.035953194495 0.030903582645 0.0304723316 0.035176874118 0.070327214338 0.049313949145 0.079297617349 0.1118791106 0.048710844661 
0.021469435043 0.017703546483 0.052827949957 0.023233130437 0.021660972868 0.03940130865 0.036063481335 0.10060816911 0.062276195008 
0.078885251793 0.06392008953 0.046506558785 0.06103598456 0.04554953954 0.047175318953 0.045662899755 0.023335242385 0.12963023715 
0.047980483552 0.048100784989 0.065307214221 0.11171812961 0.078268891278 0.057682731173 0.055772457741 0.037449263433 0.035888503664 
0.066698898772 0.03080547112 0.024165417581 0.02253790302 0.018333882491 0.017199375648 0.014815928233 0.014992588502 0.014603227669 
0.030043120956 0.028857880533 0.028405714965 0.029397473378 0.036161249434 0.013636415917 0.014532885999 0.039192784522 0.033245858686 
0.029443574772 0.01811094055 0.028121938644 0.030819342974 0.016035131524 0.016748478395 0.023765862092 0.024406754184 0.028508689388 
0.029411544581 0.020831975536 0.028670229541 0.029123055614 0.03230805113 0.027583931249 0.037602529934 0.041439320033 0.064676903976 
0.10567074908 0.043042706939 0.050190409383 0.029984334501 0.036817250108 0.034565368337 0.038000923301 0.054969967438 0.041805855766 
0.097360992158 0.059394589321 0.052026998885 0.055736427987 0.077823505129 0.090096633177 0.049600277865 0.034100801535 0.044861861012 
0.062408482573 0.068593451096 0.040758026598 0.04292851441 0.029306835226 0.040968457522 0.062458065249 0.07534340073 0.089565587986 
0.067964298429 0.043760843065 0.054364114173 0.068066637937 0.064505625003 0.048665744153 0.035338807415 0.054355773111 0.044262589589 
0.020838014953 0.021017272326 0.017856152301 0.017058880534 0.030013827252 0.050731831503 0.027335294632 0.021743055117 0.033604871013 
0.020806704466 0.023550177242 0.045700469406 0.021768170498 0.026469543768 0.041423788721 0.033271052211 0.051869503167 0.029513287903 
0.029648258973 0.043612599006 0.027153365394 0.014343794335 0.026228852337 0.010499038735 0.033276805935 0.020412620922 0.01720162371 
0.019998598336 0.020532154291 0.03702606947 0.0329085925 0.035175568986 0.039973723543 0.019894163291 0.048303848792 0.079309601844 
0.066801424674 0.13267765619 0.065207447273 0.033416373359 0.029493771626 0.020554774257 0.041337789633 0.11109909807 0.046562462904 
0.042224205788 0.042580681979 0.081637717864 0.036706099878 0.048049294091 0.033958336328 0.016659692938 0.036751012367 0.027925770073 
0.048912262893 0.061880155128 0.065778959599 0.10856580084 0.03885436529 0.041690307294 0.052291927764 0.084400044585 0.0717935465 
0.05785513718 0.04330871851 0.060995568303 0.073787265576 0.05328081201 0.063684695023 0.13443884942 0.059233060538 0.061912806837 
0.1399840401 0.038236242336 0.024290355272 0.046873013293 0.05602952632 0.027081099659 0.021110205898 0.02113993908 0.018827329851 
0.037187406862 0.10694724661 0.094371024854 0.051966802924 0.04813969106 0.019999066046 0.019372372877 0.037205471595 0.033190553538 
0.039510953439 0.038778768221 0.06173997169 0.11849124915 0.036948967052 0.079466373568 0.020405152873 0.030590743858 0.028679834303 
0.047908699172 0.026595170125 0.02240823327 0.033724588676 0.042535607513 0.030084769857 0.071849197838 0.046652229259 0.038825187198 
0.030985583743 0.037471810142 0.039388153429 0.029471035372 0.030692113122 0.035033464026 0.050680022911 0.10559448258 0.099810929546 
0.081321163871 0.066281668017 0.043579730802 0.033089360247 0.02966579537 0.041050593228 0.027508021618 0.023037928599 0.025605366074 
0.021061452496 0.027996234199 0.050156926547 0.058675623574 0.056413605566 0.033415179306 0.032778729114 0.031762501457 0.03666424749 
0.045330261998 0.080986366625 0.078398357165 0.079622754422 0.01782208127 0.029884297429 0.028626896504 0.029936270298 0.039150463684 
0.03585344958 0.023774991272 0.026140756384 0.053303222443 0.089065630403 0.08216916881 0.046009574058 0.035709300972 0.019847390254 
0.026101008155 0.034143594671 0.064140164816 0.030115677427 0.057695934178 0.021116106924 0.025828319629 0.042014625358 0.026859338125 
0.022049234315 0.025244005123 0.023633585542 0.085280112673 0.020396990091 0.040877003158 0.036326677194 0.10728428307 0.017112747146 
0.031271921928 0.06368715577 0.041342884078 0.088825169715 0.075991453552 0.063764506071 0.023996411961 0.028965444439 0.026067500699 
0.038593392758 0.029274538522 0.021028669745 0.053045678096 0.070992468098 0.071585203025 0.072676954966 0.058673381379 0.021015022822 
0.023761289857 0.037270908883 0.016296943998 0.068694607043 0.024788532822 0.033169681713 0.0250017072 0.02025146805 0.033570865974 
0.033388644015 0.02296397631 0.021954255819 0.019753516208 0.02849725741 0.076897116674 0.12159594049 0.033848899311 0.030026956583 
0.10396560218 0.059399892019 0.055293386905 0.084455026404 0.022145665722 0.032771415541 0.027568773263 0.030629526461 0.040164324738 
0.072178079943 0.039067070724 0.036926361643 0.049053626176 0.035622975552 0.048254309598 0.085330242794 0.04318691751 0.028595868132 
0.024160468508 0.0087517192671 0.02418137552 0.047303009831 0.02542136256 0.018197271569 0.033618618739 0.028103103567 0.023318161589 
0.022750594776 0.042403541214 0.061953715153 0.062323591763 0.060237088337 0.074352313191 0.033727730299 0.095357789717 0.062543303854 
0.052883728854 0.040539539498 0.069924990556 0.053893400695 0.046631974939 0.026195893234 0.046921523296 0.036974271626 0.042040992075 
0.023595727327 0.015558684636 0.023092030531 0.059488509505 0.031953627919 0.018632142451 0.022184723875 0.016751582688 0.010876558245 
0.02842708818 0.046721444328 0.066290868686 0.054038793787 0.040186177365 0.047801730997 0.068352795145 0.04604225665 0.032156444425 
0.040462164886 0.024949279943 0.022875430637 0.031653892427 0.032867419482 0.034493922167 0.017087958238 0.010898291965 0.026473977706 
0.038058756836 0.15220883781 0.029645857263 0.10438948681 0.085265228425 0.036250553396 0.03491471391 0.046042107115 0.031517085156 
0.022141849159 0.0089231445173 0.03042874549 0.053943740361 0.041797084958 0.021761619237 0.013914240652 0.027461767365 0.011201995213 
0.041662890248 0.059385139562 0.054795716373 0.055301945669 0.035648348986 0.03276571933 0.038198615859 0.045895242896 0.044811634013 
0.032691144821 0.051963245869 0.035633231598 0.049209577813 0.015033194187 0.029274892348 0.027050731849 0.033166535645 0.079552194602 
0.029291489806 0.050965113006 0.021175952265 0.051316997793 0.034765142317 0.031988857455 0.056652871507 0.050674887264 0.039663620539 
0.039828775351 0.032739583142 0.058468985159 0.034542691923 0.025203949566 0.05048324526 0.032324758234 0.051182478696 0.014844052072 
0.017248988873 0.036538778856 0.030991578492 0.028719107349 0.028228530009 0.06438662348 0.059817103969 0.027562591121 0.048153144508 
0.092289644772 0.10052498653 0.089859472982 0.065145208599 0.051266728121 0.029846896256 0.03119243199 0.017155357187 0.010114732005 
0.01581706046 0.010746718097 0.031798522287 0.018766771683 0.0062817992889 0.012642584517 0.02402465442 0.014456364697 0.032185926848 
0.022019750559 0.021625456894 0.034796809414 0.032520977891 0.042705281344 0.034012760867 0.017865833257 0.047440765338 0.048739826933 
0.037614680984 0.031589024907 0.04449051923 0.057971634498 0.065806827254 0.025812261446 0.046124124988 0.059152503811 0.049924363724 
0.053108879072 0.065274170392 0.051367455816 0.077379920569 0.047078685215 0.069502499142 0.046095833615 0.064774879153 0.044093547138 
0.07626658664 0.132298264 0.035425369221 0.074610549161 0.034756666715 0.032383294024 0.044285960097 0.027003095001 0.031391367595 
0.044219888624 0.015885031038 0.017644871496 0.017819432251 0.035227716188 0.025679049362 0.026108322295 0.032932360903 0.049543930427 
0.045330287235 0.055792999218 0.028630844794 0.039449287657 0.020930777028 0.027446527312 0.041911773913 0.053749138229 0.028470063847 
0.050691158717 0.04733995253 0.025146577486 0.022249273754 0.045051069369 0.081473022275 0.046984133567 0.069668695898 0.030738882648 
0.050242662376 0.061986437315 0.032568949056 0.056023946436 0.036316915799 0.050872780179 0.056552769256 0.02286450415 0.027768621104 
0.026873118169 0.028516946292 0.01799996348 0.033439325338 0.017521703988 0.020746061037 0.037173089085 0.065219838353 0.054726046919 
0.047499335524 0.042158569952 0.057981777056 0.14029738489 0.031915377266 0.03894043317 0.05363523769 0.057526673388 0.098165525424 
0.074589757526 0.11568258939 0.069150964784 0.075948461772 0.042515764162 0.040840913305 0.028054739705 0.01683393846 0.039801457351 
0.035463536812 0.045967479243 0.048060647737 0.050987311514 0.061437743569 0.10559299785 0.050885876192 0.055158755938 0.062968108383 
0.083912934965 0.091191399859 0.10491018039 0.037722734365 0.081935053585 0.052421670069 0.074874746739 0.03646230926 0.049653981529 