# vtk DataFile Version 4.2
vtk output
ASCII
DATASET POLYDATA
POINTS 3642 float
-10.8604 18.3059 26.7859 -10.7362 18.1021 26.8152 -10.9259 18.1051 26.708 
-9.92238 18.3025 27.7687 -9.83114 18.1051 27.8141 -9.94342 18.1023 27.6571 
-9.74716 18.3037 28.0188 -9.73056 18.1097 27.9891 -11.1258 18.3051 26.6647 
-10.7289 18.3116 26.8871 -10.5539 18.3076 27.0545 -10.3974 18.6725 27.1539 
-10.0803 18.3062 27.5875 -9.63603 18.3051 28.2141 -10.9321 18.6772 26.7212 
-10.7503 18.7369 26.822 -10.5259 18.7033 27.014 -10.1511 18.4948 27.4688 
-9.94766 18.8985 27.5717 -9.73558 18.695 27.9156 -9.53881 18.5418 28.2874 
-9.44956 18.3051 28.6141 -9.37306 18.1051 28.6141 -9.52585 18.2057 28.4141 
-9.38362 18.3051 28.8141 -9.31539 18.1034 28.9536 -8.76393 18.3085 30.1634 
-8.62422 18.1051 30.4141 -8.72609 18.1061 30.2132 -8.5359 18.3158 30.6485 
-8.52701 18.1048 30.6616 -11.1216 18.6238 26.6455 -10.4824 19.0535 27.0141 
-10.0963 18.8427 27.4229 -9.71654 18.9636 27.8515 -9.52687 18.3085 28.4173 
-9.32231 18.3043 28.9935 -9.18032 18.3045 29.2837 -9.18 18.1051 29.2141 
-8.99678 18.1051 29.6141 -9.12581 18.1056 29.3471 -8.92659 18.3053 29.8157 
-8.92273 18.1077 29.8182 -8.83355 18.1051 30.0141 -8.63836 18.3051 30.4141 
-8.40859 18.1044 31.0135 -11.3096 18.6206 26.5934 -11.4318 18.3074 26.5744 
-11.1126 19.3083 26.645 -10.9326 19.4733 26.7101 -10.2983 18.9068 27.2142 
-9.89967 19.1116 27.5343 -9.61617 18.9 28.0293 -9.44893 18.7166 28.3918 
-9.40174 18.5051 28.6141 -9.32599 18.5093 28.7926 -8.69221 18.5101 30.1567 
-8.51196 18.4979 30.5284 -8.42327 18.302 30.9625 -8.35889 18.3051 31.2141 
-8.3479 18.1051 31.2141 -11.5289 18.5165 26.5517 -11.2616 19.1446 26.6015 
-10.7345 19.1021 26.8186 -10.2999 19.1165 27.1672 -10.0816 19.0952 27.3638 
-9.72157 19.1035 27.7514 -9.52751 19.1026 27.9672 -9.13196 18.5063 29.1886 
-8.99262 18.5355 29.472 -8.83822 18.5051 29.8141 -8.39334 18.5051 30.8141 
-8.3239 18.3045 31.5078 -8.33096 18.0822 31.4155 -8.32284 18.1092 31.7066 
-11.7507 18.3027 26.5221 -11.6389 18.1033 26.5026 -11.6596 18.843 26.5404 
-11.2 19.5056 26.6246 -10.7269 19.3296 26.814 -10.5259 19.3051 26.9425 
-10.387 19.3047 27.0385 -9.72661 19.3067 27.5732 -9.53057 18.9021 28.151 
-9.32566 18.6997 28.6048 -9.17876 18.6867 28.8777 -8.70908 18.7058 29.8691 
-8.52585 18.588 30.4141 -8.32498 18.7168 30.6465 -8.32914 18.5091 31.0913 
-8.28652 18.2924 31.8945 -8.29264 18.1025 32.1975 -11.9402 18.3067 26.5116 
-11.9851 18.104 26.4788 -11.5263 19.4363 26.5597 -10.9259 19.7051 26.6781 
-10.6203 19.4984 26.8415 -10.1319 19.3243 27.2196 -9.92337 19.2889 27.4074 
-9.52622 19.3129 27.7546 -9.32842 19.1032 28.1774 -9.31358 18.9137 28.4253 
-9.01086 18.7051 29.2141 -8.91692 18.7008 29.4513 -8.46127 18.6966 30.3855 
-8.28771 18.6785 30.8578 -8.28037 18.5051 31.4141 -8.24021 18.5051 31.6141 
-8.27324 18.3072 32.0316 -8.31684 18.2635 32.4163 -8.32651 18.0871 32.4136 
-8.39087 18.1051 32.6141 -12.1258 18.3051 26.5189 -12.3259 18.1051 26.4772 
-11.9259 18.7051 26.5223 -11.7279 19.2578 26.5336 -11.1787 19.7445 26.6168 
-10.5908 19.7096 26.7943 -10.1258 19.5051 27.1398 -9.72588 19.5045 27.4137 
-9.32179 19.647 27.6163 -9.1593 19.266 28.1685 -9.14561 18.9125 28.6498 
-8.92242 18.9132 29.0755 -8.73489 18.9011 29.4993 -8.52949 18.9043 29.8802 
-8.27618 18.8849 30.4186 -8.17057 18.9395 30.6102 -8.22819 18.7304 31.0097 
-8.19829 18.7161 31.3689 -8.15039 18.7327 31.6179 -8.10501 18.7993 31.8085 
-8.26675 18.3465 32.2122 -8.35884 18.3465 32.6326 -12.3277 18.3173 26.5427 
-12.5259 18.1051 26.5213 -12.1304 18.7906 26.5309 -11.9224 19.132 26.5273 
-11.7256 19.7053 26.5472 -11.5259 19.7051 26.5617 -10.9399 19.9703 26.6003 
-10.7259 19.9051 26.6815 -10.2113 19.687 26.9995 -10.3253 19.504 27.0137 
-9.95089 19.5067 27.2465 -8.85421 19.6966 27.9915 -8.95025 19.5304 28.0709 
-8.93047 19.2642 28.4523 -9.0115 18.9617 28.8039 -8.34778 18.909 30.2047 
-7.87441 19.2934 30.9276 -8.10708 18.7964 32.0111 -8.11922 18.8113 32.2132 
-8.25687 18.5051 32.4141 -8.43445 18.3255 32.8195 -8.51465 18.1098 32.8816 
-12.7258 18.164 26.6141 -12.8256 18.1042 26.6169 -12.5272 18.3178 26.5791 
-11.9829 19.6843 26.5485 -11.2715 19.9069 26.5688 -10.3881 19.9158 26.8061 
-9.80717 19.6683 27.2337 -9.51992 19.697 27.4129 -9.12538 19.8985 27.5916 
-8.86567 19.4848 28.2172 -8.68402 19.0944 29.1925 -8.49992 19.1159 29.5244 
-8.30456 19.1089 29.9258 -8.1553 19.1087 30.2635 -7.95271 19.3059 30.4698 
-8.04702 18.9406 31.57 -7.88334 19.2466 31.9955 -8.15625 18.8199 32.4318 
-8.25118 18.7051 32.6141 -8.29697 18.8288 32.8196 -8.51874 18.4366 33.0172 
-8.60141 18.1025 33.0207 -12.8843 18.3054 26.7077 -13.1258 18.1051 26.7398 
-12.7 18.3008 26.6287 -12.3263 19.2193 26.5624 -12.1331 19.4167 26.5481 
-12.0411 19.9071 26.5436 -11.6482 19.9027 26.5391 -10.9259 20.3051 26.502 
-10.5827 20.1262 26.6348 -10.1258 19.9051 26.9369 -9.32465 19.9041 27.413 
-8.91913 19.8951 27.7763 -8.77621 19.3255 28.6187 -8.67219 19.3464 28.7923 
-7.76755 19.5624 30.5943 -7.87669 19.2501 31.2205 -7.94331 19.1309 31.4567 
-7.8637 19.2554 31.8186 -7.88899 19.2926 32.1953 -8.02919 19.1051 32.4141 
-8.4424 18.7051 33.0141 -8.77583 18.2913 33.3122 -8.87674 18.1043 33.4179 
-8.72586 17.984 33.2141 -17.3413 18.3046 29.7159 -17.0845 18.3053 29.4594 
-17.3134 18.0998 29.6245 -17.0901 18.5726 29.4415 -16.8198 18.3033 29.2275 
-16.7977 18.6328 29.1766 -16.5476 18.3086 29.0143 -13.5894 18.3167 27.015 
-13.5259 18.1051 26.9021 -13.7258 18.1484 27.0141 -13.2936 18.31 26.8651 
-12.6901 18.7696 26.6252 -12.6347 19.3331 26.6159 -12.3335 19.6166 26.5632 
-11.442 20.1041 26.5088 -11.3149 20.3108 26.4569 -10.7259 20.3051 26.5374 
-10.3259 20.1051 26.7465 -10.122 20.126 26.821 -9.88163 19.9214 27.0382 
-9.52861 19.9298 27.2392 -9.31501 20.1075 27.3701 -9.09406 20.1061 27.6061 
-8.70478 19.8977 27.9904 -8.69804 19.674 28.2023 -8.5621 19.2984 29.0665 
-8.31522 19.3938 29.3888 -8.11452 19.4409 29.7524 -7.93833 19.5132 30.0736 
-7.71784 19.5071 30.9572 -7.69907 19.4907 31.2122 -7.71532 19.4977 31.8839 
-7.71014 19.6552 32.2904 -8.11891 19.067 32.6264 -8.34691 19.0191 33.0507 
-8.57379 18.6428 33.1877 -17.7221 18.3136 30.0608 -17.7443 18.108 30.0195 
-17.9185 18.1097 30.1974 -16.623 18.7453 29.0322 -16.3165 18.3033 28.8256 
-16.3259 18.2199 28.8141 -16.1148 18.2427 28.6125 -15.9259 18.3051 28.4751 
-15.9259 18.1685 28.4141 -13.9808 18.5944 27.1813 -13.7258 18.3051 27.0665 
-14.015 18.3061 27.1935 -13.3227 18.6917 26.8975 -13.1682 18.7683 26.8261 
-12.3259 19.9051 26.5703 -11.8479 20.1329 26.4996 -11.1258 20.5051 26.467 
-10.9259 20.5051 26.5384 -10.5094 20.2983 26.5974 -9.92585 20.1051 26.9323 
-8.89348 20.105 27.8134 -8.52437 19.7027 28.5092 -8.30926 19.6656 28.964 
-7.75773 19.7149 30.3163 -7.60285 19.7037 30.9767 -7.6865 19.498 31.5037 
-7.84279 19.4834 32.4107 -7.95406 19.4186 32.64 -8.1243 19.2344 32.8234 
-8.60738 18.8713 33.3733 -8.73776 18.5514 33.3654 -8.96794 18.3075 33.5842 
-17.9181 18.3235 30.2529 -17.5735 18.5368 29.9148 -16.9261 19.0524 29.2727 
-16.2836 18.6009 28.7894 -16.1089 18.5138 28.6398 -15.7981 18.3219 28.4019 
-14.1579 18.649 27.2732 -14.1258 18.3051 27.2654 -14.4951 18.3104 27.5142 
-13.5409 18.8041 27.0012 -12.882 18.7329 26.6994 -12.9852 19.2034 26.7247 
-12.6153 19.858 26.6178 -12.3344 20.1379 26.5515 -12.1293 20.1544 26.5188 
-11.5309 20.5049 26.3953 -11.353 20.507 26.4132 -10.7681 20.5057 26.6083 
-10.5259 20.4401 26.6141 -10.3259 20.3051 26.6753 -10.119 20.3087 26.8005 
-9.75098 20.1031 27.0328 -9.50072 20.1051 27.2108 -9.12585 20.1842 27.6141 
-8.92585 20.1598 27.8141 -8.72511 20.1056 28.0143 -8.5535 19.9068 28.2192 
-8.52585 19.7651 28.4141 -8.34035 19.7224 28.8265 -8.12302 19.6936 29.3231 
-7.9104 19.696 29.8533 -7.57285 19.7051 31.2141 -7.60615 19.7056 31.9005 
-7.6834 19.8791 32.6182 -8.14909 19.4907 33.1141 -8.47706 19.1346 33.3666 
-9.00298 18.1051 33.6141 -18.1847 18.3098 30.5996 -18.2314 18.1051 30.6141 
-18.3157 18.1122 30.7784 -18.0653 18.3276 30.4313 -18.119 18.104 30.4355 
-17.7336 18.8385 30.03 -17.296 18.7748 29.6309 -17.1359 19.1498 29.4422 
-16.6231 19.1315 29.0368 -16.4926 18.8411 28.9338 -15.861 18.5506 28.4591 
-14.7258 18.3057 27.6446 -14.7258 18.1809 27.6141 -14.6592 18.5142 27.6065 
-14.1212 18.9722 27.2314 -13.736 18.7714 27.0741 -12.9218 19.5568 26.6967 
-12.0143 20.4917 26.4141 -11.7189 20.5125 26.3923 -11.5068 20.7075 26.4093 
-11.1258 20.6048 26.6141 -9.92585 20.3051 26.9435 -9.84964 20.3051 27.0141 
-9.52585 20.2179 27.2141 -9.32585 20.2268 27.4141 -8.60296 20.1051 28.2141 
-8.46002 19.9051 28.4141 -8.30553 19.904 28.7086 -8.1397 19.9058 29.0718 
-7.99559 19.7051 29.6141 -7.80442 19.9051 30.0141 -7.62535 19.9051 30.6141 
-7.56781 19.707 31.4704 -7.57032 19.9051 32.2141 -7.61254 19.9051 32.4141 
-7.89959 19.6467 32.798 -8.70577 19.034 33.6101 -8.92887 18.5505 33.6247 
-9.14768 18.1061 33.8079 -18.4052 18.3051 31.0141 -18.4402 18.1051 31.0141 
-18.3087 18.3085 30.8092 -17.919 18.7634 30.2233 -17.4879 18.9901 29.7872 
-16.9065 19.5161 29.2291 -16.5808 19.4795 28.9822 -16.1167 18.7118 28.6535 
-15.9011 18.747 28.4928 -15.3786 18.4835 28.1054 -15.3259 18.1393 28.0141 
-15.3268 18.306 28.083 -15.2029 18.3091 27.9908 -15.0307 18.5424 27.8409 
-14.9694 18.3053 27.8066 -14.4328 18.8735 27.4347 -13.9237 19.3147 27.1245 
-13.5336 19.0889 26.9821 -13.2556 19.2541 26.8314 -13.2649 19.4992 26.8233 
-12.927 20.0416 26.6971 -12.7 20.109 26.6274 -12.3295 20.7036 26.4029 
-10.8883 20.5521 26.8143 -10.5259 20.5051 26.7087 -10.1258 20.3582 26.8141 
-9.67921 20.3156 27.1702 -9.1704 20.3078 27.7776 -8.92687 20.2782 28.0195 
-8.72586 20.2268 28.2141 -8.52548 20.1107 28.3818 -8.09277 19.8956 29.1853 
-8.00062 19.9051 29.4141 -7.8846 19.9042 29.7784 -7.69795 19.907 30.3302 
-7.58896 19.9051 30.8141 -7.53815 19.902 31.2605 -7.54024 19.9051 31.8141 
-7.54804 19.9051 32.0141 -7.60125 20.1051 32.6141 -7.91495 19.7789 32.9839 
-8.39683 19.5046 33.5402 -8.53024 19.3439 33.6143 -9.28284 18.49 34.03 
-9.26844 18.2986 33.9688 -9.12585 17.9525 33.8141 -18.4946 18.3034 31.248 
[...]
CELL_DATA 7160
FIELD FieldData 1
Area 1 7160 double
0.022340484821 0.019724100405 0.019760156578 0.029934339038 0.017786144115 0.026101921297 0.13147398966 0.025206054217 0.031085623228 
0.022026864 0.054375077715 0.03560229379 0.051520736917 0.037679137746 0.025802115116 0.07253174322 0.060697910301 0.027063318339 
0.024274816562 0.035428958504 0.022798153587 0.028060198729 0.032657638852 0.041468975578 0.058795716919 0.033847176247 0.071074874355 
0.048222926717 0.11529419785 0.039420877142 0.0768537712 0.027749684656 0.011860514778 0.010874501738 0.022405868164 0.019148049521 
0.029590289567 0.02963586224 0.021461902767 0.02208988783 0.022948019937 0.028084331637 0.025662207419 0.039184473846 0.05016445671 
0.031142096893 0.069620565112 0.082917707898 0.052452216234 0.040336318648 0.037866555749 0.037217445477 0.040222568999 0.02644765615 
0.047541783923 0.024753918836 0.021594911015 0.020213894012 0.032670556749 0.014431142481 0.059311968903 0.037934398968 0.029831663294 
0.025446423676 0.03261038641 0.020983945262 0.028538998624 0.05103737189 0.052448482094 0.076545778044 0.043576333598 0.05852586686 
0.026336208701 0.036455656169 0.023153816915 0.021049994987 0.023387449853 0.056566829816 0.034214260355 0.036620682451 0.020665025724 
0.04869493892 0.035388034037 0.072797508726 0.041311818262 0.039606132236 0.042854158816 0.030407134136 0.035478691442 0.025751517868 
0.029622465076 0.023526157986 0.031129145378 0.033017375323 0.034040955753 0.043267103131 0.098135413967 0.022669485422 0.026281577073 
0.026575833373 0.038538175703 0.027635294375 0.03086651767 0.032407507707 0.031883624215 0.022244385458 0.017092913683 0.015047084943 
0.0257082827 0.020124136695 0.044532296895 0.035485012798 0.040987756114 0.041301969291 0.019534569131 0.038616946358 0.030497668217 
0.027748990988 0.030823747175 0.036909622836 0.046089274222 0.035550067742 0.01885813273 0.050531550995 0.099118279517 0.057833931138 
0.03281639535 0.027360707158 0.027214857857 0.02141639622 0.032017697374 0.033981357733 0.024855097386 0.025929152489 0.032837989621 
0.036847424159 0.03452129183 0.036975306598 0.027956690909 0.031617171391 0.040960316583 0.034001037572 0.034453000032 0.051180722163 
0.063124565297 0.019606845546 0.0072651568119 0.034444463304 0.022390843628 0.027874789182 0.033888457017 0.042130469197 0.015492268938 
0.019334528543 0.018605145164 0.034884241479 0.01906750169 0.03785270703 0.06577863881 0.048279215082 0.039108409233 0.031485647026 
0.041520708801 0.036861522781 0.021810373053 0.016472650683 0.03063648082 0.031540948926 0.030720506095 0.055448118221 0.067205881062 
0.030041017682 0.042389124491 0.034128627723 0.039931227553 0.047913750532 0.02333938599 0.05696852975 0.072820119033 0.0344517194 
0.029326698091 0.021815133909 0.037255048593 0.021393918229 0.034975118681 0.037749555555 0.021871590546 0.026177706349 0.026410555423 
0.022679362276 0.022489558966 0.045116660352 0.041390066124 0.056712336292 0.044659441809 0.045160063063 0.047244639282 0.035171554231 
0.036740955602 0.047149822929 0.03509169319 0.024338696073 0.019947604943 0.031714102607 0.034259618629 0.060182247268 0.12128883995 
0.096646343382 0.033363767386 0.063921650965 0.032451319183 0.046961879402 0.031349172187 0.058142809627 0.054082394594 0.052851507765 
0.029133654572 0.028876068193 0.10314625319 0.054170396972 0.043857867449 0.023371604227 0.030760683094 0.054943984181 0.052315198391 
0.044047633006 0.025555807394 0.028045522983 0.024664319073 0.032738080023 0.010322195434 0.022313622248 0.049302970777 0.04383235548 
0.057549760737 0.057583939785 0.026918521419 0.031043789654 0.030838946767 0.030129429236 0.037619170511 0.050137263989 0.033203869279 
0.023191457531 0.018661276937 0.026441747328 0.037571300391 0.083719338683 0.063755103299 0.030401371908 0.082101867371 0.04739014299 
0.041016769481 0.058586363415 0.062610459715 0.049681910923 0.030303288229 0.033498548832 0.10099504987 0.19804313667 0.048428703785 
0.030060724212 0.024066812999 0.050908206739 0.052472529584 0.054105988409 0.032629231776 0.040432297462 0.051826286469 0.028725393254 
0.027795438977 0.034104242036 0.012952965284 0.01582991129 0.019886881649 0.091502792596 0.089255400593 0.06573867832 0.049684834805 
0.029282739798 0.019817558239 0.037664520197 0.058097098353 0.031219411409 0.042612757853 0.035060026216 0.045026725261 0.035389883392 
0.038500182125 0.039454125148 0.031630119287 0.017315856676 0.05394168653 0.053614437699 0.10926707474 0.053807754233 0.061528000578 
0.046378382447 0.06525378441 0.071215300182 0.045162556808 0.017354868542 0.045880148485 0.050908479334 0.05417411648 0.034570424296 
0.032658888781 0.042177777359 0.057990765067 0.031794632331 0.062492126583 0.028893678017 0.038089467672 0.047138658741 0.057016222427 
0.023229009604 0.036718482182 0.046161701442 0.013961116035 0.042039487756 0.15253018352 0.061095534678 0.041889307004 0.041069435755 
0.038974070972 0.038628160861 0.081619616198 0.035462040137 0.04685874729 0.029092110003 0.035634094209 0.030826577757 0.065319222379 
0.04748663645 0.034196618393 0.027638899921 0.028835672394 0.034350928441 0.031975903816 0.030757148424 0.061941905438 0.047925186438 
0.037176042505 0.05058659708 0.079748775001 0.076054195935 0.075961485644 0.07597344667 0.049268708626 0.043802269848 0.017858103682 
0.092674468138 0.025785003023 0.03889055756 0.057624731127 0.034139811601 0.037234640028 0.042314894866 0.038788104244 0.028519750169 
0.054351503007 0.045640167322 0.026180094344 0.054040910411 0.048600417515 0.063654611302 0.053558415775 0.012641182486 0.012377795442 
0.018095899181 0.045561437376 0.012078706026 0.063207986498 0.10079812304 0.047039122728 0.06031741454 0.061778616276 0.039201146176 
0.041271650595 0.045529451963 0.044415975214 0.031277337876 0.038663388374 0.020633775469 0.020508349808 0.026216493408 0.021834963464 
0.026984910572 0.027157524342 0.058692925827 0.02749512524 0.033657235855 0.03030284647 0.031754482094 0.031648370424 0.081865862295 
0.046850626816 0.067864783644 0.073753796452 0.087658548867 0.092691286795 0.05496055035 0.042344491354 0.033969257748 0.043653680494 
0.042146003644 0.05462944794 0.070168428877 0.035580296442 0.046636525146 0.04360229972 0.045834959769 0.057180279406 0.066318050158 
0.031619894573 0.033099509186 0.032498249098 0.029656952442 0.058296847338 0.084262276744 0.087634284705 0.056549853265 0.086183296354 
0.044541070186 0.039436975035 0.032163264491 0.011035915739 0.076497955795 0.02273569482 0.029749254767 0.022741444867 0.061694305803 
0.034034682808 0.067006344376 0.043894447102 0.099788738027 0.077605500556 0.042180595492 0.033410070022 0.034225920793 0.083197622835 
0.03597465889 0.023204655223 0.021545115983 0.018692718103 0.016052877216 0.021076806843 0.019987445442 0.020643475749 0.019739733982 
0.039081944829 0.021991538417 0.01342905938 0.0086080001128 0.027555458376 0.0349987004 0.014629304825 0.083366158953 0.038070660877 
0.08979775492 0.074302716706 0.046819358566 0.051973714992 0.056006639133 0.029224083514 0.0362626452 0.091719169016 0.044852054648 
0.047245808662 0.049348122426 0.050454385794 0.040045050357 0.074151460857 0.052676739061 0.037270486199 0.044342771417 0.023673951142 
0.019292609691 0.02405197905 0.035216031174 0.024988762119 0.072202890805 0.053396351577 0.073444623952 0.076175252571 0.074269043927 
0.031798567946 0.036338921816 0.036729851074 0.017586801837 0.016944008405 0.074126236754 0.033711888887 0.074736475607 0.04992993005 
0.018818685961 0.071837103487 0.050359160925 0.06040614634 0.080305407524 0.03438923831 0.026675146746 0.050746194502 0.037594566282 
0.017947579961 0.023557579962 0.018118420424 0.015573534642 0.024683143697 0.014335839787 0.025342128877 0.024063374383 0.02054831569 
0.027588535436 0.014010031066 0.018226175282 0.011542324709 0.0079224897712 0.024601062351 0.027844248374 0.030721061033 0.007666353506 
0.037864408951 0.023585204752 0.072715900678 0.049818846855 0.038762301856 0.050725259756 0.069450498821 0.029684104789 0.030882499246 
0.05151582924 0.05312783693 0.03160152288 0.062341675058 0.042487651662 0.078678024867 0.089669127655 0.04228637358 0.05444158788 
0.040146410922 0.02451958929 0.026914228252 0.024071479717 0.020991506528 0.050972498257 0.058185397428 0.067139922584 0.072281716498 
0.077461465869 0.064667850036 0.064256558348 0.031682845676 0.039971519633 0.022135809689 0.031100282106 0.065622210277 0.013611027763 
0.035154952276 0.018639169881 0.027449876201 0.089203233727 0.057556037174 0.0678177519 0.089720904625 0.029477386961 0.058970478426 
0.068610764721 0.062650991164 0.077484158576 0.048116496392 0.060459430459 0.06816508154 0.05669105378 0.019183782629 0.018122973703 
0.038218019037 0.037934946274 0.014293824541 0.014211902875 0.006246638249 0.0062071149476 0.010398977989 0.024564487085 0.017540310675 
0.01763389306 0.028535912983 0.027905497591 0.029550512462 0.018792277839 0.018807776785 0.016461091012 0.037610122413 0.039738934838 
0.017146664632 0.046154609259 0.034961341906 0.026884933978 0.026636607781 0.033174186701 0.029281151407 0.020927183842 0.02376281554 
0.025558117393 0.044796088282 0.02128584574 0.028381881577 0.025414009185 0.04825924335 0.044671762298 0.098329340168 0.051237987867 
0.076370979725 0.067250903984 0.047887754343 0.018741953739 0.025359394236 0.022384773952 0.046257371148 0.048039913588 0.070128986225 
0.048452920954 0.087782456253 0.055144614817 0.054235276021 0.086462377314 0.095638970183 0.05606195138 0.056495242608 0.10178981396 
0.026894981136 0.0130415152 0.066165315597 0.050149312553 0.020968318441 0.013822706322 0.04439307415 0.034698249805 0.046887545285 
0.067402701557 0.051845629707 0.052412053251 0.040278204208 0.05104384527 0.083637313463 0.035507849066 0.051996661981 0.087178745755 
0.032689844941 0.043553586565 0.057711258467 0.022772667304 0.031485381655 0.021780231226 0.028133921766 0.024216214446 0.031578884097 
0.024805140313 0.023773844839 0.024845897226 0.0042285614192 0.0096144236027 0.010742307152 0.018232563935 0.01824453703 0.033271460977 
0.033776390947 0.011854696127 0.02671745646 0.015351549596 0.022696395526 0.033763841049 0.040430661106 0.012949418707 0.027285372128 
0.039608282199 0.027345088003 0.034536375641 0.029561367976 0.022289742469 0.045571877312 0.035226688945 0.020126003332 0.020923485578 
0.020198100948 0.020877081065 0.020681093065 0.02197508913 0.028953561897 0.032506562778 0.066023823111 0.058882980961 0.036185343344 
0.042559852982 0.061618286328 0.11115006384 0.047378632955 0.032312989933 0.021912168428 0.028474520656 0.038231227544 0.034585285722 
0.039318246587 0.059889758432 0.057520603377 0.049614256943 0.073138911206 0.12168861782 0.079753119527 0.050975353631 0.10005418 
0.066180872427 0.081755916532 0.089050937025 0.05155490102 0.024366740102 0.032190254355 0.047529108515 0.037164061629 0.034420170708 
0.1038910348 0.06355934368 0.031756846914 0.07135736475 0.06675455892 0.038447038901 0.049010975785 0.071236608867 0.041187052329 
0.029204560675 0.067975503007 0.043180047692 0.027114558454 0.035271662009 0.056539314444 0.021123315788 0.021943683448 0.01948038937 
0.013575870914 0.031117570356 0.026413424021 0.021904998004 0.02332699261 0.023370604415 0.0068383308195 0.025181797021 0.0099040355263 
0.027547953908 0.011361416687 0.011998283977 0.049977729754 0.028937246379 0.016845304866 0.027266833237 0.031748818651 0.042879400024 
0.030338671218 0.023046135455 0.020183817787 0.025768181479 0.036799296319 0.018328394113 0.035247222125 0.021067187652 0.02334608776 
0.027860894108 0.049237969872 0.03729969332 0.020516840379 0.020090002498 0.020047938589 0.020070138356 0.023124411806 0.02141688508 
0.042178754558 0.10016689728 0.05211575095 0.049654381841 0.058687807324 0.042747064296 0.049784141802 0.088113143795 0.032891250454 
0.042500429927 0.045642531991 0.037810180138 0.023646558175 0.047612307537 0.058513176882 0.047609471873 0.089766884746 0.056935900414 
0.068919702798 0.0705827997 0.10742887639 0.067849816633 0.022416072073 0.053856576829 0.10192646535 0.060634914391 0.13584167985 
0.088914157675 0.095362169023 0.043266238518 0.057838690504 0.072456204418 0.021025762658 0.071985320992 0.15530365541 0.087853691573 
0.073580238086 0.04059566289 0.045149630427 0.058834216412 0.038224845315 0.036860256973 0.020195023955 0.02263561264 0.016429834729 
0.012036431547 0.026860696406 0.029146266476 0.020817856382 0.030887524354 0.029261354955 0.045535535158 0.013192834939 0.028828788321 
0.022488575215 0.032910791501 0.025459689514 0.031040659704 0.030294813118 0.066916678801 0.02449854231 0.031477031054 0.034532372566 
0.0083139055924 0.028449818464 0.0091286061397 0.034736256511 0.021634142643 0.025883309776 0.02508257155 0.024175220877 0.014069761857 
0.082987828563 0.025613249447 0.020614140927 0.025600144433 0.0229441025 0.021334393185 0.0220309251 0.021240385188 0.067459705701 
0.08068137617 0.037433457878 0.074979619813 0.067123925342 0.062618734177 0.04057953787 0.092504400721 0.029309222607 0.028534219245 
0.02903021602 0.050655594599 0.018860604103 0.029735541001 0.035631250149 0.10439767457 0.077017678842 0.056143562794 0.030561788879 
0.041484616495 0.043444637337 0.041055716129 0.045645674135 0.072479261616 0.034107338473 0.055584141348 0.099786195611 0.096732256943 
0.063924740817 0.029836156301 0.12379443725 0.035373532333 0.088851021295 0.072819978554 0.063442073448 0.058312950998 0.055602367565 
0.031634163435 0.050272503524 0.071473267371 0.01373429429 0.020490441024 0.022767808067 0.019473819518 0.015045929463 0.030476781694 
0.055320044925 0.052400337654 0.034696132371 0.031574638509 0.032351713507 0.025998895052 0.03161523973 0.033828879875 0.040577406957 
0.054650657382 0.01807549222 0.083984388888 0.016598020084 0.011493024848 0.018713635209 0.018022092495 0.025846380505 0.0096615672508 
0.029892831839 0.022660783562 0.024819510001 0.036696941165 0.017545090448 0.052931705752 0.015345999896 0.055916062008 0.018710511028 
0.025923055814 0.042592230248 0.0070958705025 0.02088479488 0.020564224435 0.035916093987 0.041517416676 0.059344250002 0.02382006355 
0.067169167476 0.070193885374 0.047945632213 0.039798535698 0.10259470455 0.077322861776 0.025150056339 0.024227055325 0.046582935025 
0.029205632775 0.049747702403 0.027495551261 0.053543478288 0.07011531461 0.069038622083 0.031695188298 0.02635830642 0.030839601205 
0.036686537844 0.036216799 0.040004200493 0.023470018899 0.035502956395 0.070770168399 0.090275101021 0.072642538029 0.082457330466 
0.090743096826 0.093953747733 0.051838094603 0.074811686578 0.14361641954 0.069460960124 0.045627058667 0.039500142251 0.044243840446 
0.075037555663 0.055381051735 0.045541670406 0.052423316336 0.069461642435 0.035148995155 0.022426286617 0.012785087595 0.013205414476 
0.023473844101 0.029675753415 0.060509188556 0.044336920287 0.029140938899 0.051820711697 0.034551739964 0.030204796943 0.034511848481 
0.037724133492 0.042124734427 0.05475823027 0.0076719274082 0.028187298821 0.03636806407 0.028115235468 0.02451410181 0.022773554547 
0.041807139597 0.021998441803 0.022958052154 0.020389769916 0.028474483246 0.0324384092 0.059010719324 0.037645249293 0.078047365765 
0.014328826031 0.0066474482554 0.022353199623 0.023827505452 0.039803311534 0.03181038225 0.032681527323 0.034245655633 0.05444350413 
0.11259081129 0.057547143797 0.10151419995 0.042064220105 0.10195878475 0.11346680617 0.016965257382 0.034065358244 0.035985866722 
0.070635901862 0.094174290994 0.059134230233 0.068677777391 0.035507548517 0.047182864345 0.069196772457 0.038592867466 0.039970689765 
0.033143547253 0.076667152785 0.027915589144 0.05356788142 0.024060772764 0.034832040379 0.034495699196 0.061167459592 0.058297366752 
0.08097320461 0.076550633625 0.076494537131 0.075199891204 0.13480886642 0.12889216344 0.043622438272 0.044319656159 0.10361736644 
0.03732259192 0.058219401421 0.042747473838 0.066487730674 0.071522679691 0.05967020777 0.070559038429 0.054978451983 0.020353786634 
0.02388298273 0.065183641492 0.022906165356 0.032950150461 0.062994219294 0.029207049317 0.034619749237 0.05123598985 0.035624791574 
0.034569860771 0.031349128488 0.032683751918 0.014917621278 0.013690064691 0.014893135651 0.027814722632 0.036602144818 0.034085310399 
0.018218515499 0.066867189242 0.041175462985 0.024556690842 0.029013826048 0.016439170928 0.033564614659 0.054556614476 0.036116780685 
0.034112504697 0.03483087239 0.057574378685 0.025667849565 0.027388395236 0.031822052223 0.027270861924 0.027346428831 0.027928064868 
0.030982124514 0.16611085735 0.070623771766 0.057400026441 0.035362554916 0.074136469511 0.066924926849 0.023126245613 0.024042228876 
0.037769466658 0.031631672743 0.048520015614 0.067498541924 0.033178535696 0.044786574811 0.02040321452 0.036889506716 0.050101137121 
0.03900763185 0.050106229354 0.065935102379 0.073645044724 0.039177649992 0.067131821742 0.031783852257 0.048760975724 0.048819643676 
0.050980551537 0.051035101168 0.1378772749 0.054394825075 0.10977233292 0.11169011298 0.051508785334 0.061885715606 0.031724890157 
0.051666834649 0.036125293397 0.04970694128 0.036752648076 0.031096497113 0.020523448212 0.020427813881 0.031508564507 0.021413770228 
0.031973265837 0.034661372977 0.041848182477 0.030885480202 0.031967104619 0.066130792494 0.028465674712 0.036437374937 0.013271757214 
0.031139750343 0.034237925402 0.023686162027 0.027529961227 0.025740318782 0.034075192242 0.03816381357 0.028543458425 0.017720828363 
0.031694972156 0.025588400703 0.033024375474 0.01357780945 0.021582377209 0.047520539646 0.033791458964 0.019695148125 0.048132968455 
0.043727997487 0.043369381658 0.054758822147 0.023816270273 0.023402690932 0.026610296474 0.012478134563 0.029010253938 0.024598667637 
0.046170572373 0.054461949775 0.060067801492 0.050480274705 0.079759641624 0.023027101745 0.042876781188 0.031591956855 0.063662098328 
0.032214900909 0.027703891936 0.026124457853 0.02064002663 0.031561475054 0.060716492172 0.060482275879 0.044660787297 0.051153730465 
0.028214910268 0.016679025377 0.049260830332 0.058589532667 0.053552904114 0.079798317156 0.046674818229 0.051322820886 0.036044590271 
0.04880163647 0.064385787243 0.10369662013 0.054037080106 0.088615436892 0.052065487104 0.059444409787 0.075759881758 0.088890064892 
0.1197624141 0.053639550961 0.036830918621 0.055530309332 0.044486751698 0.08183819301 0.10987905019 0.01760817172 0.010612238221 
0.0097014766221 0.024540577141 0.020528614136 0.0208593731 0.036266108898 0.025745938077 0.03163422113 0.034081214763 0.063564534567 
0.030169327398 0.015859167388 0.039435840503 0.026437590499 0.052691492242 0.038362734899 0.029151523331 0.028480209079 0.029252498252 
0.081112185022 0.012907052866 0.032133925564 0.049692594735 0.028478265147 0.043116313876 0.046332551492 0.038352306432 0.026561565877 
0.037002933155 0.041770605182 0.037946598748 0.038081634847 0.022099704477 0.0098309672364 0.011343497549 0.01385658311 0.023825749128 
0.018353488238 0.030455680687 0.095330612959 0.063455708962 0.059465678395 0.040364157276 0.034517889297 0.034865197854 0.040688029919 
0.038897644083 0.061805214729 0.056232409442 0.040615709483 0.035109255591 0.039015292794 0.039603721188 0.035341899378 0.056401120835 
0.043055324204 0.047340620922 0.048845132154 0.031790670325 0.020531752786 0.076976697364 0.065202004095 0.046764919162 0.11353937156 
0.069119673478 0.064681975126 0.046929496366 0.043869475879 0.069959105222 0.066250637723 0.078630916272 0.052199338814 0.044255227949 
0.043076415116 0.085057112322 0.039066069838 0.054596874826 0.069369015786 0.070473002169 0.052891516476 0.023274599777 0.0094560613098 
0.010931621318 0.018080584392 0.028486701898 0.018938089739 0.018697290386 0.024178352992 0.026129568983 0.032147686697 0.041072971408 
0.051840303656 0.04936566312 0.031444152003 0.0346714246 0.02974338153 0.036397323142 0.053851712534 0.052092632956 0.028657668057 