# vtk DataFile Version 4.2
vtk output
ASCII
DATASET POLYDATA
POINTS 3566 float
-17.5958 18.3901 29.9085 -17.5782 18.1807 29.7868 -17.7752 18.1811 29.9771 
-14.3921 18.1831 27.3731 -14.1982 18.1826 27.2704 -14.3982 18.0862 27.356 
-13.7978 18.1831 27.0559 -13.9982 18.0785 27.156 -18.7445 18.5816 31.6596 
-18.7283 18.3826 31.556 -18.7769 18.3792 31.8076 -18.6718 18.3826 31.356 
-18.5958 18.5902 31.167 -18.5963 18.3727 31.1579 -18.4113 18.5771 30.8545 
-18.4672 18.3826 30.956 -18.3982 18.3826 30.8442 -18.3982 18.2461 30.756 
-17.8527 18.383 30.1493 -17.4074 18.3855 29.7051 -17.3744 18.1804 29.5808 
-17.2073 18.3843 29.5382 -17.1982 18.1826 29.4386 -17.0185 18.3343 29.3796 
-17.0269 18.1912 29.3169 -16.8025 18.193 29.1454 -14.7982 18.1826 27.614 
-14.7982 18.054 27.556 -15.0205 18.183 27.756 -14.6951 18.1826 27.556 
-14.5982 18.1826 27.5021 -14.0281 18.3538 27.1652 -13.4413 18.1737 26.8859 
-13.5982 18.0577 26.956 -18.798 18.3829 32.9194 -18.8149 18.3829 32.7237 
-18.7982 18.3482 32.956 -18.8184 18.5831 32.3637 -18.8109 18.3826 32.356 
-18.7946 18.568 32.021 -18.7979 18.3775 32.1788 -18.6618 18.5852 31.3361 
-18.351 18.3826 30.756 -18.2048 18.3829 30.5395 -18.2143 18.5941 30.5215 
-18.0266 18.383 30.3209 -17.9038 18.5634 30.1895 -17.4334 18.576 29.7306 
-16.7812 18.3804 29.1746 -15.3749 18.396 28.0112 -15.1982 18.1826 27.8729 
-14.7684 18.3886 27.5927 -14.4958 18.5532 27.4041 -13.6356 18.3784 26.9465 
-13.3982 17.9826 26.8299 -13.2401 17.9849 26.7594 -13.1617 18.1826 26.7703 
-12.9982 17.9826 26.6785 -12.7887 18.1874 26.6521 -12.7982 17.9826 26.6284 
-12.4742 17.9855 26.5564 -12.3558 18.1812 26.5602 -12.1982 17.9826 26.5296 
-18.7594 18.3826 33.156 -18.8165 18.6045 32.6848 -18.8484 19.112 31.7493 
-18.7748 18.9121 31.5665 -18.5961 19.1631 31.0086 -18.5304 18.945 30.9436 
-18.0593 18.5789 30.344 -17.6961 18.9391 29.9616 -16.9374 18.5763 29.3195 
-16.5982 18.2726 28.956 -15.5848 18.383 28.1799 -15.5978 18.1802 28.1567 
-15.8007 18.1906 28.352 -15.3947 18.1821 27.9915 -14.1309 18.6509 27.2059 
-13.4153 18.3974 26.8456 -12.2062 18.2143 26.5483 -11.8906 17.9811 26.553 
-18.7533 18.5749 33.2252 -18.7976 18.5843 32.9518 -18.8963 19.109 32.6233 
-18.8861 19.0239 32.176 -18.875 19.0739 31.9543 -18.7553 19.162 31.381 
-18.3623 18.6524 30.7432 -18.1672 18.9845 30.406 -17.972 19.026 30.201 
-17.3995 18.8748 29.6885 -17.1939 18.5828 29.5407 -16.579 18.5854 28.9682 
-16.5612 18.3824 28.9499 -15.7994 18.3897 28.379 -15.9982 18.1826 28.4587 
-15.0114 18.6941 27.7371 -14.7883 18.6042 27.5878 -14.4247 18.9129 27.3668 
-13.7899 18.6915 27.0264 -13.6053 18.7322 26.9433 -12.8345 18.3703 26.6558 
-12.5982 18.3826 26.5947 -12.3788 18.385 26.5566 -11.8739 18.192 26.5633 
-11.5982 17.9826 26.592 -18.6293 18.5799 33.6455 -18.7086 18.3826 33.356 
-18.5976 18.3791 33.677 -18.9005 19.2499 32.9593 -18.9126 19.1189 32.3432 
-18.9452 19.4702 31.7351 -18.7039 19.3826 31.156 -18.3556 19.325 30.5708 
-18.2822 18.9894 30.5487 -17.7403 19.3296 29.9207 -17.494 19.1797 29.7419 
-17.1009 18.7597 29.4548 -16.6311 19.1378 28.9747 -16.3958 18.3824 28.7992 
-16.3982 18.2356 28.756 -16.0533 18.3845 28.5674 -15.7347 18.751 28.2742 
-15.2656 18.708 27.9214 -14.6124 18.8457 27.4839 -14.1473 19.2345 27.1875 
-13.7976 19.1221 27.0181 -13.0956 18.8685 26.7421 -13.1968 18.4417 26.7739 
-12.1331 18.6647 26.5601 -11.8224 18.3958 26.5618 -11.5982 18.1826 26.5952 
-11.3982 17.9826 26.6434 -18.5177 18.5891 33.9635 -18.4986 18.3826 33.956 
-18.9693 19.4102 32.6668 -19.0058 19.4931 32.1559 -19.0116 19.5603 31.9564 
-18.8671 19.3826 31.556 -18.8126 19.4289 31.362 -18.5329 19.3868 30.8342 
-18.2011 19.5724 30.3423 -17.9792 19.569 30.1184 -17.2563 19.0549 29.5406 
-16.8136 18.9269 29.17 -16.3723 18.8931 28.7521 -16.0072 18.5699 28.5195 
-15.4373 18.9141 28.0338 -15.1191 18.9869 27.7854 -14.8079 19.1271 27.5745 
-14.4542 19.304 27.3639 -13.3941 19.1806 26.8612 -12.6031 18.7692 26.6073 
-12.3984 18.756 26.5764 -11.1904 18.1834 26.7071 -11.1982 17.9826 26.703 
-18.3547 18.7012 34.3633 -18.4001 18.3852 34.1908 -18.5874 18.7839 33.8871 
-18.7427 19.027 33.5535 -18.8766 19.2767 33.15 -18.9899 19.7315 33.166 
-19.0066 19.4838 32.363 -19.1501 19.9242 31.9778 -18.9897 19.7282 31.5181 
-18.793 19.6027 31.1679 -18.6612 19.5826 30.956 -18.5613 19.574 30.7923 
-17.607 19.7413 29.7516 -17.3907 19.6834 29.5716 -17.1503 19.3062 29.4098 
-17.0069 19.0638 29.3209 -16.7583 19.2742 29.0777 -16.4064 19.2467 28.7743 
-16.354 18.5792 28.7653 -15.8934 18.993 28.3628 -14.5619 19.6525 27.3973 
-13.7579 19.4958 26.9868 -13.1548 19.2457 26.7529 -12.8023 18.8227 26.6554 
-12.4004 19.1184 26.5733 -11.7954 18.9116 26.5657 -11.5759 18.532 26.588 
-11.402 18.5727 26.6236 -11.0139 17.981 26.7819 -18.3253 18.3816 34.3553 
-18.4432 18.9663 34.2593 -18.8339 19.3679 33.4039 -19.0709 19.867 32.8945 
-19.0553 19.6645 32.5703 -19.1425 19.8597 32.1509 -19.1812 20.1291 31.7366 
-19.1816 20.2377 31.5737 -18.8974 19.8518 31.1496 -18.3998 19.6291 30.5644 
-18.2458 19.8048 30.3098 -17.989 19.7533 30.0825 -17.1374 19.6853 29.3582 
-16.6144 19.456 28.9372 -16.1978 18.9204 28.6038 -15.6541 19.352 28.1741 
-15.1363 19.3408 27.7834 -14.9748 19.3141 27.6718 -14.8054 19.5453 27.559 
-14.1891 19.6621 27.2034 -14.0581 19.6576 27.1413 -13.4171 19.7474 26.8349 
-13.0337 19.5488 26.7063 -12.6004 19.1559 26.602 -12.0234 19.0189 26.5523 
-11.2051 18.6346 26.6825 -11.0278 18.1824 26.7711 -18.1255 18.5417 34.7538 
-18.2399 19.0108 34.6793 -18.5632 19.1043 34.0543 -18.7167 19.3741 33.7883 
-18.9004 19.5771 33.3532 -19.1031 20.1271 33.1449 -19.1462 19.873 32.3479 
-19.3314 20.5822 32.0716 -18.9724 19.8394 31.3433 -18.8012 19.8677 30.9416 
-18.5995 19.7405 30.7542 -18.4184 19.7889 30.5039 -17.6909 19.9547 29.7526 
-17.3714 19.9853 29.4868 -16.8843 19.4364 29.1537 -16.8734 19.8107 29.1061 
-16.3955 19.7021 28.7591 -16.172 19.2087 28.5653 -15.9525 19.2252 28.3856 
-15.4 19.4997 27.957 -14.8202 20.1634 27.5289 -14.4031 19.9762 27.3061 
-13.7484 19.7931 26.9767 -13.1994 19.7712 26.7502 -12.8418 19.5935 26.654 
-12.3219 19.3847 26.5705 -12.1407 19.1711 26.5631 -11.7982 19.1826 26.5728 
-11.2951 18.9995 26.6556 -10.7994 18.1821 26.9568 -10.8064 17.9565 26.9544 
-10.5478 18.169 27.2139 -10.6081 17.9536 27.1532 -17.9982 18.2761 34.956 
-17.8639 18.3847 35.1606 -18.1015 18.3814 34.7598 -18.4116 19.4095 34.5117 
-18.839 19.7035 33.6581 -19.0237 20.043 33.3865 -19.2152 20.2774 32.7769 
-19.1813 20.045 32.5499 -19.3472 20.7697 31.7487 -19.3204 20.7837 31.5654 
-19.1212 20.3561 31.2413 -19.0017 20.1317 31.1402 -18.2063 20.0277 30.1619 
-17.8312 20.1585 29.7805 -15.9833 19.5814 28.4043 -15.6474 19.5795 28.1481 
-15.1808 19.767 27.793 -14.5929 19.9868 27.4021 -14.1572 19.9807 27.1649 
-13.3468 19.9915 26.7792 -12.8935 19.7798 26.6539 -12.5986 19.5514 26.6023 
-11.5178 19.179 26.611 -11.0011 18.6978 26.7615 -10.7621 18.4758 26.9443 
-10.2157 17.9691 27.5586 -17.4065 18.3838 35.8356 -17.6417 18.371 35.51 
-17.5973 18.1825 35.6325 -17.8702 18.5506 35.1774 -17.9476 18.9516 35.1528 
-18.0391 19.1912 35.074 -18.5514 19.4974 34.271 -18.7536 19.7781 33.9699 
-19.1108 20.3826 33.356 -19.1771 20.373 33.0924 -19.3333 20.5691 32.3645 
-19.3665 20.7891 32.0723 -19.2172 20.6528 31.278 -18.9849 20.2867 30.9447 
-18.788 20.0616 30.7701 -18.6191 20.0639 30.5575 -18.4213 20.0662 30.3442 
-17.6084 20.2483 29.5696 -16.8338 19.9975 29.0468 -16.0185 19.7983 28.4147 
-15.4518 19.8598 27.975 -15.0816 20.2043 27.6799 -14.537 20.1939 27.343 
-13.7484 19.9922 26.9638 -12.3072 19.594 26.5575 -11.7966 19.4254 26.5638 
-11.516 19.3948 26.5917 -11.1982 19.1826 26.674 -11.0041 19.0173 26.7563 
-10.1985 18.1834 27.5564 -10.2879 17.9065 27.4647 -17.5017 18.1826 35.756 
-17.6463 18.777 35.5621 -18.3042 19.4898 34.7448 -18.8756 20.0898 33.8529 
-18.9876 20.1415 33.5888 -19.0259 20.3805 33.6344 -19.2273 20.583 33.0412 
-19.3245 20.577 32.5499 -19.3466 20.7826 32.356 -19.3441 20.9826 31.956 
-19.3453 20.9826 31.556 -19.3044 20.9826 31.356 -19.1684 20.6422 31.1301 
-18.4062 20.5282 30.0897 -18.1609 20.4437 29.9132 -17.7797 20.5139 29.5688 
-17.1815 20.1833 29.2871 -16.3628 19.9693 28.689 -15.7032 20.1864 28.1224 
-15.5327 20.1668 27.9962 -15.0057 20.4725 27.5707 -14.6121 20.339 27.3525 
-13.9683 20.1756 27.0337 -13.4311 20.1745 26.7748 -12.9982 19.9826 26.6546 
-12.4752 19.7846 26.5523 -11.9877 19.5242 26.5496 -11.1982 19.3826 26.6409 
-10.7982 18.9826 26.8733 -10.6445 18.8046 26.9958 -10.5376 18.6066 27.1321 
-10.1729 18.3898 27.5435 -10.0282 18.1826 27.7595 -10.0125 17.9849 27.7909 
-17.3982 18.1826 35.8835 -17.5039 18.7963 35.7707 -17.784 19.1423 35.447 
-17.9779 19.3685 35.248 -18.5188 20.0565 34.6598 -18.768 20.054 34.1276 
-19.1304 20.5839 33.3713 -19.2915 20.5826 32.756 -19.3165 20.7839 32.58 
-19.3082 20.9826 32.156 -19.3533 20.9826 31.756 -19.1709 20.9678 30.9802 
-19.1264 20.7079 30.9793 -18.9155 20.3826 30.756 -18.7911 20.4089 30.5631 
-18.5926 20.5002 30.2964 -17.6062 20.6798 29.3781 -17.366 20.4701 29.3056 
-16.8123 20.3509 28.9345 -16.5311 20.1949 28.764 -16.0436 20.173 28.3913 
-15.2785 20.3716 27.7862 -14.3784 20.4038 27.1938 -13.008 20.1754 26.6074 
-12.7348 19.961 26.5774 -12.1908 19.8347 26.5046 -11.9982 19.7826 26.497 
-11.4558 19.5494 26.5662 -11.2109 19.6389 26.5729 -10.9998 19.4407 26.677 
-10.9685 19.1842 26.749 -10.7458 19.1806 26.8627 -10.1842 18.5797 27.4863 
-17.329 18.1826 35.956 -17.4037 18.7599 35.8965 -18.1217 19.5587 35.0967 
-18.4133 20.0647 34.8753 -18.6196 20.0643 34.4559 -18.9102 20.3826 33.956 
-18.9979 20.5836 33.711 -19.1333 20.7826 33.156 -19.202 20.9789 32.4158 
-19.1982 21.0781 32.156 -19.2048 21.1772 31.8095 -19.2919 21.1826 31.556 
-19.3014 21.1826 31.356 -19.2567 21.1826 31.156 -19.004 20.6743 30.7472 
-18.5756 20.8312 30.1657 -18.2031 20.6138 29.8888 -17.8615 20.7826 29.5469 
-17.1084 20.3672 29.1613 -16.22 20.1812 28.5346 -15.9754 20.3772 28.294 
-15.5944 20.3773 28.0002 -15.2233 20.5854 27.6742 -14.896 20.7051 27.4051 
-14.5658 20.8891 27.1347 -13.9656 20.4309 26.9496 -13.5778 20.4408 26.7516 
[...]
CELL_DATA 6999
FIELD FieldData 1
Area 1 6999 double
0.085440963276 0.098912189822 0.086525293709 0.056998347737 0.099047176265 0.040452079458 0.044438766332 0.029992389089 0.028465982491 
0.026926757465 0.013838996308 0.030791511323 0.072875567404 0.02543765719 0.017797012422 0.025848782892 0.019585167002 0.022907057858 
0.0062625497944 0.0080969386842 0.017415929376 0.027160705856 0.029106633239 0.016934238389 0.025468790466 0.012354688946 0.02095825207 
0.041865009827 0.043031002317 0.030951983262 0.033140597739 0.039904672324 0.024027496219 0.03464971171 0.028109357586 0.030259529393 
0.044643083811 0.016778826819 0.033520855252 0.025132035749 0.0322315668 0.030021374158 0.039409369551 0.040329590167 0.020161294078 
0.021274707037 0.020278681754 0.029614911378 0.023192259076 0.023774901148 0.022284031853 0.0084211704156 0.024426299849 0.016734408672 
0.021166131181 0.021443904973 0.020956621579 0.020975370658 0.021233225031 0.023498329008 0.0063303116681 0.021973760555 0.022679010414 
0.026680325145 0.028010587729 0.053405120919 0.055951900911 0.049784485163 0.065535220581 0.07185510582 0.036710030792 0.030408816251 
0.018801581434 0.12841803991 0.054594353057 0.071440412551 0.037138766668 0.027994759188 0.041129475622 0.074082504703 0.057787726715 
0.059130613787 0.10220229357 0.056587416126 0.041637713286 0.036132237788 0.033500674155 0.016210209167 0.016045589265 0.018925811087 
0.010007283289 0.013153166917 0.025669503678 0.027669669839 0.043591001714 0.016172911523 0.031248980877 0.038369366352 0.04255494998 
0.020321553262 0.038486056729 0.088931857654 0.11277620951 0.052357588086 0.04824694504 0.041117894799 0.055740417354 0.057483641205 
0.092173338365 0.052847854537 0.049471448773 0.038949895073 0.019986400192 0.030459987335 0.021142832649 0.026476383634 0.021554838793 
0.021828289938 0.029239942463 0.027766742238 0.018742251033 0.026215476574 0.029997467344 0.032136372749 0.029114707866 0.016929317746 
0.0024266919974 0.016830337356 0.026668458263 0.017715462566 0.042955589016 0.040855839663 0.039052681313 0.02245864481 0.022298410846 
0.026742691435 0.022448163632 0.018657857089 0.030100746579 0.022395074315 0.018031034234 0.036329606168 0.040796556275 0.036880640745 
0.028049013393 0.027503263643 0.037482294035 0.022878202276 0.030974161883 0.023412252856 0.033242874104 0.034275214449 0.026775473605 
0.017740286351 0.021338616253 0.025693095599 0.025155211465 0.025597279909 0.029050437972 0.025175408156 0.018940020487 0.023956396384 
0.021158677155 0.045296069011 0.021572297655 0.0073443367133 0.024646905161 0.021700395024 0.024210506245 0.024832906232 0.026003650033 
0.030834006065 0.056857126401 0.078512399984 0.067582475306 0.058826708997 0.047742386631 0.037031104583 0.037091988082 0.025672877756 
0.045744600325 0.070607603023 0.12116044643 0.039869840034 0.024629127552 0.029236756769 0.055408232027 0.073315175966 0.036769708843 
0.068236753513 0.086583850885 0.090519309443 0.054865577187 0.066563670351 0.040356563586 0.026864663129 0.032182949256 0.02678327804 
0.012866060313 0.011434569466 0.011504457663 0.017307149446 0.025460999688 0.024466020751 0.018190972528 0.015811105192 0.033236474637 
0.070432659866 0.065551079915 0.062071750309 0.087616715331 0.093181840998 0.062959715194 0.067151587097 0.053062471199 0.039387482457 
0.051534616894 0.052098816074 0.052253058238 0.087628388183 0.13095998893 0.046069257048 0.034134178257 0.025409144245 0.020394983223 
0.038510936115 0.024500370991 0.027647245784 0.0357139288 0.035618645193 0.026957244758 0.012178270209 0.01245820293 0.031807709645 
0.024053814068 0.006558906185 0.036673228157 0.030937398498 0.015305432245 0.019677573316 0.024791941403 0.031619887824 0.025720736331 
0.020265506722 0.021977402826 0.019287064152 0.032833923605 0.027202127046 0.019329744466 0.057011675603 0.039958258972 0.02507826667 
0.021902683142 0.018538878191 0.025554526504 0.017919445236 0.025198653637 0.02065874881 0.020686327392 0.031348833792 0.0179272846 
0.049181963595 0.039637611158 0.021448895264 0.02696527748 0.022578167353 0.025387910264 0.048209250176 0.028396518446 0.02904441451 
0.023710697086 0.025303711638 0.04904806656 0.02113815731 0.021569970163 0.010325501338 0.026359090753 0.024934317084 0.022780955729 
0.029048665309 0.023722420299 0.028327263397 0.0182965332 0.071419743964 0.033010466987 0.058380480999 0.057403398568 0.0644042768 
0.042805607432 0.04055067254 0.038766269791 0.04227659936 0.089014004641 0.040917771916 0.054297439003 0.08656523323 0.055576749065 
0.040000647725 0.045753140442 0.046969522573 0.019406180973 0.037761739993 0.067424863852 0.064504212259 0.050608868018 0.0314094149 
0.084924934119 0.063236906773 0.022446962678 0.027432199689 0.027043913148 0.026959692703 0.025428670079 0.031631903537 0.022059855352 
0.021500097849 0.023567536922 0.0390416281 0.085310821427 0.073874085692 0.05468323606 0.062433519494 0.050695192519 0.046131064731 
0.073612952307 0.069929352137 0.075371533533 0.10708673371 0.10427097312 0.077421645216 0.087984008416 0.07821529859 0.050006757824 
0.040866038586 0.07315603903 0.035193291427 0.021734756678 0.030775078038 0.022081703439 0.027873160551 0.034337706529 0.029155451317 
0.031136141157 0.023845568568 0.020411622092 0.027729980501 0.023425540799 0.036695905675 0.027581199957 0.02387565687 0.022853223922 
0.025722532846 0.018086367146 0.028460774424 0.023710138027 0.026400118358 0.030990555281 0.024372342967 0.027672107527 0.019120726913 
0.04865716295 0.032445099657 0.030430255102 0.047968312275 0.03528501299 0.030988433653 0.024760774136 0.02197462818 0.034074153016 
0.039943680049 0.019105146872 0.029883764488 0.028786554515 0.021816799467 0.022755069492 0.043357472514 0.031836057371 0.03365142801 
0.023877610925 0.025076059118 0.025488923162 0.01956944683 0.023518671707 0.024179085115 0.024948544471 0.022369234174 0.025608950231 
0.018150711654 0.026783475333 0.015508457072 0.031200314293 0.029751306982 0.057633024099 0.047892501764 0.068455193099 0.04383887185 
0.046679230857 0.02720398439 0.028105049679 0.040364488017 0.074151804983 0.036477258095 0.052202284327 0.039664060023 0.07024761858 
0.041326193591 0.055893492163 0.063009824047 0.055824900815 0.035887597734 0.066657356913 0.065941955093 0.045922515087 0.040844971754 
0.037080238139 0.062435198659 0.11019727946 0.079060028515 0.025943371211 0.035873667618 0.016989040687 0.01641421912 0.026208929509 
0.01261783148 0.013701618258 0.024537775171 0.026999452289 0.045160650318 0.15546257545 0.08181993662 0.049660686192 0.05800373869 
0.070615270791 0.049270825482 0.02937467446 0.055973067323 0.10420829753 0.069586943496 0.067267553771 0.086488325907 0.080551428464 
0.062221530532 0.056104692697 0.059611212165 0.03331803438 0.021485991111 0.040471213434 0.02639935934 0.031049435058 0.027062833709 
0.035917419723 0.028292188144 0.034123640228 0.050620413996 0.025233196839 0.039792231443 0.0052615244019 0.019484817639 0.0067949180249 
0.0147018131 0.0078667838855 0.024010049051 0.0074848843917 0.024831700233 0.038697039268 0.026420614498 0.029633948251 0.010646809898 
0.04022463289 0.029725292646 0.041025778613 0.017135387624 0.055904304781 0.034068200565 0.024433192663 0.066873326037 0.024952728118 
0.023723188654 0.037767491508 0.033493187751 0.031634018843 0.029688877996 0.020751302914 0.031011762266 0.028924916159 0.034621609035 
0.035816473059 0.028710071468 0.023444134535 0.01158351502 0.029271176887 0.019029401846 0.018876827343 0.024411152756 0.023552595844 
0.026937027794 0.022100878938 0.0229874773 0.030793284652 0.017055637661 0.029438713152 0.023476982325 0.033066596168 0.044620267626 
0.048877549222 0.049084688124 0.026900337677 0.057281078538 0.019771316894 0.028286746345 0.018223798709 0.049566811425 0.069865122989 
0.13437645786 0.035794726931 0.082955633577 0.034797522735 0.044591772609 0.066994980847 0.042758133322 0.047464420143 0.082952157028 
0.096827294939 0.047444252378 0.041053785914 0.08980164768 0.089662851588 0.030492489857 0.033038056914 0.037449548355 0.048619832008 
0.021973530638 0.029297651234 0.03054672485 0.013756762058 0.036736347424 0.036386541419 0.01856364064 0.014248152972 0.028670136733 
0.023081770419 0.057282547048 0.079740203778 0.099013479917 0.10138670233 0.082218882788 0.05976440318 0.054135271664 0.1004803633 
0.068820492793 0.10302288554 0.06925505842 0.045459591589 0.044180961218 0.040458849141 0.025614998689 0.061046777709 0.048720472671 
0.085541883255 0.023108837338 0.037262270927 0.043410229751 0.024317799835 0.022277505493 0.023790293112 0.018959891635 0.026257975012 
0.013887404051 0.023975872666 0.036952800472 0.031488234055 0.040219139691 0.041483377758 0.010110513881 0.0080995078868 0.02480226467 
0.03301127469 0.068188452639 0.0089625740387 0.034183421451 0.019358496163 0.064783588571 0.024782773957 0.065572436776 0.044321295846 
0.034013543717 0.023111640387 0.040060810167 0.030131838109 0.028961910306 0.02870625035 0.030143498756 0.02684790095 0.027268571958 
0.032996144227 0.032527638817 0.030764548339 0.030033934418 0.032780761024 0.026667582688 0.032668316106 0.011784563209 0.028216293466 
0.018594983783 0.01035756263 0.03790917453 0.039222961239 0.023277898498 0.022522485499 0.055192528413 0.0073411569377 0.023130060871 
0.0099800659745 0.021116257767 0.022703327458 0.020497667474 0.059137576116 0.03564646912 0.039288958478 0.030105948173 0.020131636503 
0.024666650792 0.028824413698 0.018384231003 0.024311045626 0.027685325949 0.022262023776 0.050708786169 0.061170122572 0.063015669009 
0.052125845955 0.038910223239 0.034060578632 0.024068347459 0.0343913114 0.05190866209 0.094333432552 0.046278758335 0.060813776268 
0.044608178047 0.046116438977 0.02058045853 0.030098079829 0.056538510397 0.022024254423 0.026988571207 0.022426831531 0.029975062361 
0.027766238056 0.010701243205 0.052251653554 0.01292109862 0.0085410693387 0.035001465099 0.027165283249 0.050287950036 0.050478649627 
0.060645072133 0.064150369703 0.13093495402 0.042135617586 0.040915465549 0.11108482677 0.098729222213 0.064562533019 0.056441084227 
0.061325466325 0.047999561736 0.049542055626 0.061608561776 0.033606007034 0.033901543724 0.10088279755 0.23069888682 0.046089964561 
0.041089433241 0.056304037201 0.04818002219 0.048298060898 0.022283153442 0.031611819163 0.047719808602 0.018981647307 0.046181917159 
0.024501748155 0.034320442591 0.021269243391 0.039362967082 0.057112136243 0.050113951454 0.014507061732 0.024492314939 0.022941627421 
0.093458502553 0.032921879348 0.024554583449 0.079434096598 0.052733205004 0.052729723947 0.028779623572 0.024983467606 0.030085266529 
0.031267093656 0.020012302278 0.024509598427 0.031774645371 0.029109703328 0.029964434756 0.031610463444 0.031272093678 0.022629904398 
0.02914809551 0.032071288118 0.042757416138 0.027934600005 0.031448183345 0.0090902914921 0.011081865291 0.029902424509 0.02321015072 
0.021486439161 0.026839274871 0.035191183342 0.022854800318 0.012054221072 0.018833910625 0.020224993689 0.019916283773 0.018543909823 
0.021364477816 0.083776796429 0.029472377189 0.023847078017 0.027985647633 0.03216779097 0.022852846277 0.027353529021 0.050715644436 
0.033964465101 0.03133927985 0.061717775652 0.06463491152 0.044365231171 0.068326299585 0.05711267516 0.049288896537 0.029555863771 
0.027472372791 0.048865843271 0.020341922255 0.049069412855 0.047720998821 0.088529292518 0.052106120344 0.068078631231 0.060090673597 
0.060817859505 0.045169438457 0.020563388586 0.023562831061 0.064093245607 0.019775073436 0.032692437265 0.035095074652 0.035025831589 
0.027416597011 0.013256699237 0.055609563327 0.041184503212 0.064289851404 0.067538990541 0.058410757296 0.061509365782 0.07403672847 
0.060169461172 0.11349228373 0.10284798272 0.083537439067 0.069984005436 0.045898042668 0.043093759282 0.043505380673 0.038591980424 
0.081949349138 0.07605771092 0.093053284801 0.041315689201 0.064361709696 0.0605276961 0.07229927915 0.051825506354 0.048377717989 
0.037628608432 0.03840492685 0.075130904011 0.033217317832 0.039607385768 0.036662596601 0.059428753955 0.027108796191 0.047818512367 
0.046713957748 0.044454533802 0.073688548755 0.072456546718 0.023198955335 0.069817661502 0.05317857503 0.061089454767 0.043858648919 
0.033237323993 0.027036869526 0.031734452834 0.029452592625 0.026843327633 0.032654047612 0.034113815536 0.038276235258 0.019989709973 
0.023596301997 0.029910831041 0.030309122078 0.024488736847 0.012153374563 0.029790084049 0.031188249119 0.033699330074 0.028324472446 
0.012669861992 0.016869612702 0.026361332661 0.028443813991 0.025528728966 0.023404717562 0.012044730163 0.020105821018 0.039311716303 
0.023050241203 0.018302695133 0.020243287613 0.034417277605 0.019584160819 0.022216751759 0.058552632226 0.03086903146 0.071227495249 
0.05222245797 0.037472425021 0.037186258739 0.03612577729 0.04609596984 0.037043762559 0.016483705083 0.038133020077 0.043097949871 
0.048246961355 0.047050800138 0.040255282791 0.05705572085 0.063537424149 0.047659686411 0.035381037286 0.082960800344 0.049972670349 
0.100517374 0.090786880421 0.051203570499 0.064896297629 0.040207620413 0.067233812281 0.052403924396 0.051353010595 0.020817257379 
0.021308949349 0.018358541825 0.055831986482 0.03600232429 0.056035341441 0.079127414271 0.032722505193 0.037748116398 0.041211930508 
0.025929156969 0.071152039133 0.019899869051 0.017292251212 0.037656657919 0.024063786625 0.028629819949 0.053512572976 0.023493304531 
0.023928416911 0.055475121037 0.091789196673 0.053872897669 0.076908568475 0.031680385452 0.029975110528 0.026724390192 0.032081304064 
0.034591658725 0.024738515728 0.02288004887 0.01972359931 0.027845475675 0.027362088146 0.017898092095 0.04700773306 0.024158072243 
0.024722347453 0.035484318229 0.052467035965 0.043301994137 0.038397355142 0.05083629687 0.042540272678 0.037528718056 0.058827789224 
0.035047582359 0.086191548475 0.064257475999 0.11894499012 0.044834508788 0.055161562876 0.029028611416 0.046557098536 0.023696004452 
0.051715316936 0.023536864301 0.042185331968 0.023405378766 0.015346596185 0.045615462944 0.0089861821725 0.0091062844463 0.020621777035 
0.027292103191 0.054954493458 0.02822833559 0.024831053036 0.028255660382 0.020927096003 0.011711301856 0.025340658707 0.027555557539 
0.023254805476 0.02856787357 0.024558099554 0.024641407668 0.029090866795 0.037968492447 0.053202011438 0.021738921003 0.016459977707 
0.066918599903 0.06409371872 0.056777928144 0.051278730587 0.038668131937 0.06756937999 0.075285409259 0.05645093948 0.032940996236 
0.029163946754 0.034663267486 0.030051154767 0.032365049065 0.041016201361 0.019967530183 0.037170796199 0.065169381901 0.029382528201 
0.024706577918 0.022673048696 0.021020336958 0.024828956378 0.040766569339 0.038566425372 0.039674744888 0.023473447281 0.020852431551 
0.013039324337 0.052187898484 0.048693196828 0.051213822154 0.079536075414 0.035781075382 0.070106696221 0.041830294027 0.04184143601 
0.020761035586 0.025273327762 0.028241382838 0.016512264974 0.033885749733 0.038441673894 0.023931523989 0.023941706346 0.018746633725 
0.032930731609 0.022096847979 0.049327520752 0.038978549569 0.039637843494 0.036528703804 0.066373373601 0.0096247747709 0.013708393943 
0.045500857111 0.035718380601 0.011697912868 0.0099305327673 0.010166315326 0.030240191527 0.022288771229 0.024796261067 0.02878539569 
0.029722293742 0.024785267917 0.029082671342 0.044863591051 0.029233959164 0.097769378255 0.076782424812 0.031406072052 0.01584952037 
0.015875303335 0.01006169003 0.01442462486 0.0053938711864 0.022086667456 0.017720818974 0.025240151511 0.02766732903 0.029327288355 
0.026235168726 0.021233805256 0.047557032522 0.063893656235 0.041919778592 0.045017774092 0.021654567882 0.020523849462 0.020342546312 
0.020276444027 0.022208372063 0.035736224046 0.015388964225 0.01959387854 0.021297075208 0.017742289374 0.025364631739 0.015859302634 
0.022225841712 0.02774310338 0.015461309735 0.040719022284 0.020632088927 0.028144740825 0.023797136832 0.028759289287 0.036304950525 
0.069980524026 0.093761387708 0.046516922572 0.035705348695 0.033929863352 0.058719287977 0.020382711146 0.028213223819 0.034657440244 
0.13105184706 0.070006549369 0.11516008291 0.063479579624 0.061520808837 0.058477643508 0.034153799468 0.053048407634 0.036135739999 
0.056384770901 0.03267950069 0.06110673298 0.043156164511 0.043843708246 0.043735797776 0.031855089365 0.021248805008 0.017405773801 
0.018086676697 0.016481821241 0.023251112885 0.01928389108 0.016723777205 0.023455749229 0.032481620172 0.04569762338 0.052345908875 
0.050330052599 0.033816489287 0.035130427616 0.061851546625 0.045913034854 0.029762299894 0.021086802375 0.019858253495 0.020669433603 
0.034572239192 0.028939596914 0.023446958348 0.040407538017 0.015454201544 0.0088591219716 0.011691296031 0.010392735654 0.014536391993 
0.004345094786 0.028320449492 0.075975626913 0.038449696079 0.032062855784 0.017049060754 0.019075278558 0.024949279097 0.026453454061 
0.026588720026 0.01778504782 0.0086740044375 0.01906135002 0.021046319933 0.019081869839 0.023632470493 0.013640566097 0.019603408996 
0.028417811934 0.03826063305 0.022168338522 0.020563469306 0.019870769811 0.023178340232 0.015948400559 0.032057080858 0.028116549758 
0.03427812547 0.022070186525 0.01902008943 0.023855837375 0.017137478054 0.0050290317032 0.025729233684 0.013589745716 0.019084209333 
0.034619939754 0.024197572769 0.033139490715 0.021283120358 0.011545752197 0.0074106169082 0.053279286828 0.044040891831 0.022696279349 
0.03024498295 0.060826230906 0.082375434341 0.073274222665 0.032900028061 0.059070068514 0.045274469727 0.016797290049 0.023380904853 
0.013480293323 0.070065408284 0.06975440572 0.068194251748 0.13547035087 0.040076441886 0.034182875539 0.027879819276 0.040364433398 
0.060207791224 0.043053178908 0.045365409602 0.038354940182 0.057689737986 0.032337376351 0.058069081736 0.070366725796 0.026673905434 
0.034062771033 0.027997241848 0.024187510942 0.016253565846 0.022665097694 0.025273105619 0.032311627085 0.029350856775 0.016383960209 
0.035601214788 0.020351755002 0.034991370849 0.032550315296 0.10698864738 0.041705415159 0.030782860424 0.046422322991 0.027151528725 
0.022355358579 0.0084014531231 0.039409067174 0.019934507654 0.012286480767 0.017711502548 0.028560997497 0.026548490981 0.025630569594 
0.0244811419 0.0072237768703 0.035780724779 0.030315227636 0.016040428543 0.01658424048 0.015144147079 0.03134913846 0.027088653762 
0.038557387193 0.019105804096 0.025113098764 0.023508581903 0.021296078577 0.025211751582 0.017167070685 0.015202613804 0.024945610147 
0.022543146857 0.022798964566 0.018403361762 0.049232198774 0.016323909167 0.020567936353 0.015745397447 0.030711574451 0.014048293947 
0.032221950225 0.016230870331 0.02188037134 0.021093383675 0.021501295007 0.022823146559 0.019273791142 0.026950402321 0.023337049032 
0.012267472311 0.014434562263 0.004348841974 0.034219521243 0.0024006118486 0.0049124111487 0.022459515026 0.020450326379 0.013722920731 
0.010031322432 0.023475875424 0.029965618391 0.013090283661 0.018275323534 0.031510273162 0.026633628072 0.025309708912 0.028136685998 
0.044707630921 0.04569529757 0.051096810954 0.061201148467 0.058059635797 0.022519321552 0.021019631427 0.023030479054 0.011165308034 
0.028903532346 0.053122986316 0.05664494262 0.070879698198 0.06597636778 0.07085366343 0.044985029007 0.024598994084 0.047861776612 
0.042313694827 0.081867523146 0.084737238953 0.084304161653 0.065013325538 0.028768881184 0.056905544943 0.063214637504 0.062910327293 
0.062104484423 0.026785376276 0.03058131975 0.023182855928 0.035757554455 0.042548638216 0.02253998029 0.011371397622 0.050027823797 
0.026230616065 0.040347017119 0.034137035449 0.054909285184 0.10368329563 0.10671067947 0.10606423641 0.042055834042 0.070318822537 
0.036766076599 0.044514429978 0.041592347268 0.031706474398 0.024266189727 0.011087992608 0.040745813071 0.062888505694 0.050169166476 