# vtk DataFile Version 4.2
vtk output
ASCII
DATASET POLYDATA
POINTS 4420 float
-13.583 18.3608 26.909 -13.4211 18.1583 26.8236 -13.6097 18.1385 26.8974 
-13.8211 18.1583 27.0158 -13.2172 18.3571 26.7491 -13.1476 18.1585 26.7006 
-15.0145 18.2949 27.6992 -15.0669 18.1588 27.7023 -15.2379 18.1629 27.8453 
-14.7946 18.1567 27.5014 -14.2979 18.366 27.2771 -14.0028 18.1192 27.0953 
-14.2211 18.1583 27.2199 -13.9964 18.357 27.1103 -13.4972 18.6902 26.8418 
-13.0253 18.3522 26.6491 -12.8211 18.1583 26.5513 -12.3823 18.5009 26.4416 
-12.4211 18.1583 26.4402 -12.6462 18.1634 26.4984 -12.22 18.1601 26.4125 
-15.2254 18.3589 27.8651 -14.7962 18.3646 27.5333 -14.6211 18.1583 27.4253 
-14.4172 18.1582 27.3314 -13.8 18.7391 26.9981 -13.3205 18.9107 26.7341 
-13.0362 18.5826 26.6284 -12.8211 18.3583 26.5572 -12.6037 18.4785 26.4874 
-12.2054 18.5852 26.4211 -11.9897 18.1575 26.4043 -15.4348 18.3543 28.0313 
-15.4809 18.163 28.0659 -15.3527 18.5746 27.9302 -14.8092 18.5623 27.5295 
-14.0372 18.8637 27.1092 -12.3983 18.8775 26.4608 -12.0236 18.5875 26.4126 
-11.8624 18.4646 26.419 -11.6211 18.1583 26.4347 -11.6388 18.3834 26.4414 
-11.323 18.1576 26.4913 -17.6182 18.1578 29.8556 -17.5208 17.9583 29.6952 
-17.6211 17.9583 29.818 -17.4243 18.1589 29.6671 -17.3887 17.9555 29.5211 
-17.229 18.1564 29.4738 -16.787 18.1585 29.0944 -17.0211 18.0741 29.2952 
-16.8211 18.0093 29.0952 -15.824 18.161 28.3373 -15.04 18.7004 27.6793 
-14.4737 18.6821 27.3514 -13.746 18.9459 26.9466 -13.0306 18.7909 26.6139 
-12.8288 18.6585 26.5395 -12.62 18.8563 26.4953 -12.2229 19.5217 26.4736 
-12.0177 19.0217 26.433 -11.4235 18.3956 26.4803 -11.2211 18.3583 26.5336 
-11.2448 18.0976 26.5027 -17.6959 17.9583 29.8952 -17.5913 18.4109 29.7998 
-16.8488 18.4285 29.1177 -16.6211 18.0326 28.8952 -15.8811 18.3633 28.3853 
-15.3114 18.886 27.8633 -14.8372 18.8825 27.5418 -14.3982 19.093 27.2743 
-14.1967 19.1841 27.157 -13.463 19.2 26.808 -13.2994 19.3523 26.7414 
-12.6016 19.2971 26.5122 -12.457 19.5072 26.4956 -11.8199 19.0597 26.4394 
-11.6195 18.8692 26.4509 -11.0211 18.1583 26.6094 -10.8211 18.0539 26.6952 
-18.1891 18.1591 30.5052 -18.071 17.9583 30.2952 -18.2155 17.9575 30.5187 
-18.0196 18.1584 30.2576 -18.0211 17.9583 30.2235 -17.8515 18.1569 30.0611 
-17.8982 17.9583 30.0952 -17.8211 17.9583 30.0175 -17.2886 18.5541 29.497 
-16.5959 18.4492 28.8993 -16.6198 18.1537 28.931 -16.2283 18.3612 28.6447 
-16.0194 18.5792 28.4748 -15.5879 18.8936 28.1061 -15.202 19.0325 27.7731 
-15.0496 19.335 27.6672 -14.0225 19.5492 27.059 -13.8173 19.3553 26.965 
-13.0626 19.5314 26.6488 -12.8256 19.2944 26.5644 -12.3495 19.7614 26.4744 
-11.8984 19.3529 26.4534 -11.3909 18.9327 26.4854 -11.2902 18.6894 26.5113 
-11.0173 18.5315 26.5989 -10.8247 18.1567 26.7173 -18.3865 18.1626 30.836 
-18.3117 17.9583 30.6952 -18.4202 17.9606 30.8918 -17.5106 18.9265 29.703 
-17.0302 18.883 29.2598 -16.8469 18.8278 29.104 -16.3742 18.1527 28.7304 
-15.355 19.4601 27.8905 -14.8115 19.4695 27.5055 -14.442 19.6212 27.2851 
-14.2185 19.6792 27.1588 -13.4847 19.6099 26.7965 -12.6189 19.7226 26.5166 
-11.9753 19.5677 26.4605 -11.6083 19.3461 26.4649 -10.614 18.1584 26.891 
-18.4996 18.1494 31.0805 -18.0422 18.3472 30.2484 -17.8737 18.3534 30.055 
-17.5239 19.1258 29.7056 -17.0333 19.153 29.2528 -16.5986 19.1108 28.9154 
-16.4257 18.4083 28.7702 -16.251 18.7041 28.6514 -15.9879 18.8753 28.4277 
-15.5632 19.3461 28.0747 -15.2294 19.6616 27.7936 -14.8505 19.9497 27.5513 
-14.1746 19.9604 27.151 -13.766 19.6344 26.921 -13.1294 19.9804 26.6654 
-12.8272 19.9253 26.5635 -12.6574 20.088 26.4956 -11.925 19.7618 26.4404 
-11.6211 19.5583 26.457 -11.3752 19.335 26.4946 -11.1503 18.9059 26.56 
-10.8362 18.4069 26.6928 -10.604 18.356 26.8762 -18.5138 17.9583 31.0952 
-18.4596 18.7219 30.8841 -18.3185 18.4078 30.6629 -18.2206 18.3729 30.4947 
-17.8789 18.7336 30.0628 -17.755 18.8027 29.9322 -16.8443 19.1829 29.1 
-16.4941 18.8159 28.8327 -15.9789 19.2927 28.406 -15.6407 19.7511 28.0866 
-15.4438 19.8663 27.9395 -13.7627 19.9578 26.9297 -13.4211 19.9583 26.7757 
-12.4309 20.0328 26.4484 -12.2276 20.0834 26.404 -11.4346 19.5889 26.4657 
-11.1977 19.3216 26.5314 -10.8051 18.6429 26.6884 -10.4276 18.356 27.0512 
-10.4198 18.1587 27.087 -18.5818 18.1563 31.3168 -18.5584 18.5974 31.1015 
-18.0664 18.5693 30.2674 -17.812 19.3022 29.9524 -17.1194 19.5347 29.2961 
-16.8331 19.7249 29.064 -16.345 19.4762 28.6914 -16.1294 19.1298 28.5268 
-15.9382 19.7204 28.3282 -14.4464 19.9694 27.3051 -14.2252 20.161 27.171 
-13.3919 20.15 26.7486 -13.0211 20.1583 26.6023 -12.9726 20.3757 26.534 
-11.8921 19.941 26.3983 -11.6189 19.8545 26.4076 -11.1631 19.565 26.5156 
-11.0046 19.3107 26.5912 -10.7959 19.1048 26.6895 -10.6172 18.6269 26.8121 
-10.4476 18.6993 26.9473 -10.2322 18.1145 27.2941 -18.5798 17.9583 31.2952 
-18.5196 19.0571 30.8965 -18.3267 18.77 30.6528 -18.2234 18.5918 30.4962 
-18.0502 18.757 30.2525 -17.4684 19.453 29.6129 -16.574 19.4453 28.883 
-16.1206 19.5304 28.5109 -15.8712 20.1154 28.2425 -15.6576 20.1555 28.0865 
-14.818 20.1638 27.5212 -13.7933 20.1595 26.9305 -12.3275 20.3562 26.3487 
-12.06 20.2203 26.3382 -11.414 19.9926 26.3848 -11.0918 19.8235 26.4808 
-10.6123 19.1222 26.7903 -10.3003 18.6871 27.1022 -10.0513 18.3601 27.5018 
-10.0359 18.1598 27.513 -10.0211 18.0659 27.4952 -18.6444 18.169 31.5848 
-18.6215 17.9584 31.4883 -18.628 18.5899 31.3319 -18.6293 19.1461 31.0904 
-18.4059 19.0214 30.7147 -18.0261 18.9635 30.2066 -18.0037 19.3277 30.1288 
-17.7227 19.5705 29.8167 -17.1683 19.7094 29.3146 -16.5967 19.908 28.8609 
-16.1608 19.8514 28.4996 -15.3599 20.1589 27.8748 -14.1537 20.3492 27.0993 
-13.7134 20.3784 26.8524 -13.4129 20.4085 26.7035 -12.8444 20.6522 26.4031 
-11.8216 20.2657 26.2909 -11.6298 20.3488 26.265 -10.7875 19.765 26.5866 
-10.6636 19.5159 26.6896 -10.6871 19.3507 26.7093 -10.4372 18.9524 26.9237 
-10.1804 18.5719 27.273 -9.92428 18.1583 27.6952 -18.6588 17.9583 31.6952 
-18.6654 18.9457 31.2661 -18.6058 19.4179 30.8995 -18.4317 19.3567 30.643 
-18.2187 18.9648 30.4603 -18.0214 19.5486 30.0927 -17.515 19.7946 29.5839 
-16.9222 19.9466 29.0973 -16.3249 20.1787 28.589 -15.6599 20.3594 28.0565 
-15.123 20.3509 27.6904 -14.5252 20.3567 27.3204 -13.0836 20.5615 26.5161 
-12.7443 20.7575 26.3322 -12.0331 20.7091 26.1769 -11.2651 20.5429 26.251 
-11.1983 20.2295 26.3509 -10.8253 20.0321 26.4834 -10.365 19.3585 26.8787 
-10.2182 18.9811 27.0977 -10.013 18.9492 27.2962 -10.0253 18.541 27.4867 
-18.6954 17.9559 32.0056 -18.7013 18.4726 31.7135 -18.7183 18.7578 31.6014 
-18.7117 19.1583 31.2952 -18.6798 19.3583 31.0952 -18.2837 19.2357 30.4775 
-18.1564 19.264 30.3128 -18.1176 19.7749 30.0788 -17.847 19.7402 29.8646 
-17.293 20.0054 29.3558 -16.6282 20.1546 28.8336 -16.0647 20.3893 28.3407 
-14.5419 20.569 27.2704 -14.019 20.5854 26.9469 -13.5993 20.5571 26.7347 
-13.4181 20.9423 26.5064 -13.1557 20.9755 26.4074 -12.2134 20.8201 26.1781 
-11.8226 20.7016 26.1605 -11.4211 20.7583 26.1651 -10.4835 20.022 26.5657 
-10.4165 19.7466 26.6968 -10.3969 19.579 26.7706 -10.4234 19.1831 26.8996 
-10.2065 19.1597 27.0521 -9.92753 18.7583 27.4952 -9.86683 18.56 27.7157 
-9.83738 18.358 27.8639 -9.82109 18.1583 27.8951 -18.6997 18.1607 32.0805 
-18.7038 17.959 32.298 -18.6845 18.1693 31.8837 -18.747 19.045 31.4911 
-18.7961 19.6089 31.106 -18.5727 19.5343 30.7585 -18.4228 19.6304 30.4942 
-18.2217 19.5578 30.2946 -17.6952 19.9351 29.6724 -17.0869 20.1943 29.1483 
-16.5362 20.3357 28.7034 -15.9261 20.5727 28.1788 -15.5257 20.5469 27.9099 
-14.8091 20.5774 27.4418 -12.6093 21.1751 26.1839 -12.0231 21 26.1127 
-11.6111 20.8815 26.1178 -11.2211 20.7583 26.1992 -10.8793 20.5519 26.3091 
-10.8211 20.3583 26.3732 -10.5835 20.1505 26.4875 -10.1886 19.3979 26.956 
-10.0211 19.1583 27.1813 -9.81996 18.958 27.4945 -9.7019 18.1583 28.0952 
-18.7008 18.1651 32.4896 -18.6763 17.9583 32.6952 -18.7062 18.1542 32.2909 
-18.7721 18.7646 31.8998 -18.7847 18.9687 31.7545 -18.8312 19.3401 31.4715 
-18.797 19.4584 31.272 -18.065 20.0932 29.878 -17.8351 20.0939 29.7025 
-17.6453 20.28 29.4993 -17.3883 20.3752 29.2807 -16.8302 20.5451 28.847 
-16.388 20.6192 28.4913 -16.128 20.737 28.2528 -15.1561 20.5633 27.656 
-14.8216 21.0537 27.2742 -14.2155 20.9973 26.9019 -13.7895 20.7436 26.7551 
-13.5497 21.1523 26.5121 -12.8963 21.3114 26.2517 -12.417 21.0661 26.1611 
-12.331 21.3484 26.0846 -11.816 21.0357 26.093 -11.4211 20.9583 26.1231 
-11.2211 20.9583 26.1712 -11.0211 20.7583 26.2562 -10.6211 20.3583 26.4174 
-10.3887 20.2112 26.519 -10.1523 19.9569 26.6936 -9.87837 19.7795 26.9026 
-9.93732 19.32 27.1447 -9.80647 19.1862 27.3387 -9.82076 18.748 27.6469 
-9.77425 18.5583 27.8952 -9.69407 18.3583 28.0952 -18.6747 18.1596 32.7927 
-18.8102 18.8836 32.073 -18.8281 19.1761 31.6882 -19.0014 19.8859 31.275 
-18.7992 19.8023 30.9114 -18.6301 19.7579 30.6743 -18.3214 20.1168 30.1019 
-17.2478 20.9336 28.9907 -16.5402 20.5963 28.6069 -15.7758 20.8113 27.9839 
-15.3262 20.7337 27.7062 -15.0499 20.8084 27.5083 -14.4857 20.8782 27.1136 
-13.8774 20.951 26.7292 -13.6211 20.9583 26.5952 -13.2211 21.1583 26.3827 
-12.9346 21.5758 26.2198 -12.023 21.4331 26.0321 -11.6211 21.3583 26.0505 
-11.4249 21.1481 26.0984 -10.9852 20.9576 26.2786 -10.9059 20.7583 26.2952 
-10.6211 20.5583 26.3951 -10.2211 20.1583 26.6008 -9.64364 19.7381 27.0655 
-9.65375 19.1586 27.5013 -9.6274 18.9694 27.7228 -9.62712 18.7686 27.9598 
-9.62112 18.3583 28.1815 -18.628 17.9603 32.9647 -18.7315 18.5017 32.6961 
-18.8109 18.8829 32.5838 -18.836 18.9499 32.297 -18.8714 19.1575 31.9834 
-18.9287 19.5583 31.4952 -18.5722 19.9927 30.4545 -18.4227 19.9565 30.2937 
-18.2143 20.395 29.9166 -17.9257 20.4257 29.6667 -17.5025 20.606 29.2839 
-16.8704 20.7653 28.7879 -16.6006 21.0033 28.5099 -16.3733 21.1259 28.3038 
-16.0232 21.0085 28.0854 -15.1992 21.1226 27.4714 -14.9872 21.1678 27.3322 
-14.5117 21.1753 27.0378 -14.0055 21.1722 26.7367 -13.5988 21.4214 26.4946 
-13.2331 21.4068 26.3465 -12.5954 21.6066 26.0967 -12.2186 21.6575 26.0248 
[...]
CELL_DATA 8705
FIELD FieldData 1
Area 1 8705 double
0.022396398414 0.027248351414 0.040174602635 0.029873930871 0.015644178958 0.023578431681 0.02427977849 0.023648927071 0.046094046205 
0.066179851814 0.021315251356 0.034801640979 0.039919028468 0.03473726452 0.026414330443 0.029404985079 0.019880195215 0.023330812085 
0.02346395878 0.041062960746 0.087489553616 0.058853856887 0.066896838443 0.025049885038 0.022404751985 0.018290630376 0.035129434143 
0.03731219934 0.049034538939 0.031407282007 0.026388837738 0.024741510137 0.02742534326 0.058096802095 0.087204187769 0.064134698224 
0.0427005855 0.069812531185 0.02592373935 0.033358292915 0.042821693099 0.034358391452 0.039181743159 0.056727160591 0.03417305949 
0.015953103405 0.022983758373 0.029814904233 0.024263378155 0.022161503481 0.041795943952 0.02939975195 0.082013827502 0.055244826098 
0.038184081582 0.088798023046 0.096288851603 0.031679278628 0.050702791562 0.033377398683 0.033959534982 0.034480889743 0.042558275955 
0.088592089028 0.039557425842 0.032639021366 0.024621499037 0.026656183024 0.011216177147 0.010822009523 0.027809456845 0.034496325904 
0.078963842867 0.021077905268 0.057275250999 0.063836570936 0.058017436282 0.04197834865 0.062648478039 0.093511462046 0.060447640683 
0.065968754362 0.070334875346 0.023134749209 0.042051029573 0.049333505978 0.074549729262 0.092017042879 0.042889975486 0.050695612767 
0.068690366532 0.05302542111 0.023089572184 0.031333202472 0.019574868581 0.026892087165 0.0087816698714 0.017668016486 0.010875260373 
0.017398689268 0.031152343882 0.034304913207 0.08951660529 0.11187498977 0.045901616958 0.014442070608 0.043917328115 0.092897372601 
0.057730751552 0.037214757461 0.077901554351 0.094885825203 0.044982717316 0.1146240651 0.07372952731 0.037747626333 0.098007251137 
0.068104511479 0.068138715586 0.050724816074 0.052483071923 0.029125153821 0.063980327589 0.030540942022 0.050659408495 0.061039248255 
0.033292641266 0.039921177232 0.011772797833 0.02275229004 0.02034185986 0.030199407766 0.026025746906 0.039495755047 0.10141473378 
0.11757065007 0.066626366468 0.034638300007 0.019719007905 0.069996816011 0.047027172193 0.13674365832 0.10545518183 0.044444227908 
0.059098366607 0.08170727311 0.14666009621 0.063555179927 0.053148409971 0.039222264336 0.043232329821 0.05006897391 0.088293804706 
0.04894655464 0.032833957377 0.032551794426 0.032623434094 0.028397849651 0.042372882974 0.04904104522 0.05472153843 0.031933619748 
0.041703134636 0.041842913586 0.014277367181 0.026802377315 0.039093667791 0.028551005342 0.024595388604 0.037933066642 0.015446253932 
0.15644565077 0.047011314228 0.04832508698 0.1048720948 0.032351053792 0.040491693082 0.02838443258 0.048584253156 0.075602106451 
0.060668535107 0.053339361449 0.063542911887 0.073062100043 0.11695571107 0.064118235708 0.033753317264 0.03789435993 0.072652401436 
0.097724385685 0.079230459368 0.06720370893 0.050639130881 0.04145834332 0.037698394601 0.030780032279 0.047378443822 0.029253623398 
0.042697225829 0.024265685063 0.027089172675 0.021383680232 0.076089127638 0.047902446964 0.032740869544 0.025376492117 0.072607882737 
0.097386581756 0.06674387494 0.032553384288 0.054729962283 0.042332068302 0.041659810892 0.039580203713 0.046561948951 0.10696618584 
0.11921598393 0.060406258481 0.042357318792 0.10510236854 0.10772773601 0.034930800645 0.095926300177 0.047164203328 0.043817306109 
0.053597592371 0.069710980705 0.035920523338 0.029761527073 0.069720289091 0.034792589553 0.020023580305 0.0295933092 0.036584667559 
0.051663535564 0.050827981539 0.02577139746 0.036430356342 0.024643676488 0.027352666172 0.023986192752 0.056532234898 0.061250150694 
0.020941337862 0.03341736259 0.02859161481 0.053519803167 0.042567036277 0.089888200168 0.1289577734 0.043086350873 0.084467016714 
0.074206645534 0.056670554478 0.058743355459 0.038620271615 0.1119235678 0.079033545131 0.055738896797 0.08338609754 0.082578563816 
0.054381829759 0.046839014799 0.060606930751 0.054411699952 0.029578317893 0.032013733939 0.037383291902 0.02474062559 0.030452692704 
0.033332046154 0.045917831741 0.028038117495 0.034371041988 0.022363825144 0.041742713891 0.086263480636 0.026835310765 0.039305265804 
0.043279738422 0.026981201856 0.020850509158 0.056230424105 0.042813606583 0.048215180743 0.021264463675 0.0303451684 0.024235872897 
0.046892217103 0.071463661224 0.073279993825 0.047855718708 0.096996416033 0.058314538543 0.049338886359 0.1250334774 0.074286449215 
0.055525874314 0.047421701305 0.074224723026 0.050493679258 0.074108681898 0.050258954557 0.031113459257 0.049967881694 0.037868637717 
0.042507945682 0.035153956147 0.04463812384 0.1120930752 0.031607955161 0.036826602925 0.026578866353 0.040744699611 0.037026942353 
0.024890291109 0.061848057686 0.048309547613 0.055693130852 0.031551920618 0.03666196984 0.071552676912 0.014134118088 0.020800634863 
0.027109830293 0.052507973124 0.060550494596 0.035515745862 0.036131082501 0.03436699931 0.026281116474 0.027038342279 0.075774679103 
0.053488778901 0.043411027229 0.037078159762 0.072590694868 0.069293939291 0.039016496567 0.04376371746 0.062522357141 0.0537779499 
0.053262492542 0.094417172018 0.066332137861 0.047087087181 0.049459409387 0.052474872457 0.053549507778 0.099107348796 0.031185805742 
0.039094857307 0.049815269759 0.053632897084 0.069369375495 0.044248984959 0.063193352806 0.039606600986 0.025111857421 0.054105137963 
0.027118744937 0.042124056469 0.064243783783 0.02988411216 0.010296254796 0.022141004761 0.059802457127 0.043118977571 0.050478209497 
0.039193760499 0.037358567018 0.03722394153 0.042121082788 0.032960138915 0.045973947473 0.029358014903 0.053427189497 0.055307871253 
0.075048842388 0.047426992352 0.043129631086 0.070484848267 0.090736565892 0.087958107895 0.026880828534 0.037523620927 0.061927279699 
0.067405148302 0.041397752987 0.054180284154 0.044131098519 0.044295871017 0.030110607243 0.046783977481 0.071824665794 0.061086271996 
0.049803923323 0.089501254064 0.059191649249 0.043290382933 0.063948360217 0.028054879906 0.042521274374 0.027583115446 0.040948318118 
0.048301260762 0.024262628482 0.021398512841 0.032794183736 0.067335281901 0.055580348451 0.02346228453 0.023389724073 0.05546622441 
0.040301325626 0.041850395241 0.049082916397 0.043608188725 0.041370674784 0.026290037463 0.049165485509 0.041447853445 0.060488888081 
0.063768470654 0.05008902617 0.088040972001 0.07231893585 0.064972217764 0.063977155043 0.067041295805 0.04726149889 0.059283929731 
0.02914229302 0.043794671942 0.067317581093 0.036257491702 0.12863999144 0.051457637066 0.048049633111 0.043666078324 0.057365615207 
0.043856399934 0.068890473019 0.049333461551 0.048413387414 0.022797655509 0.043023180304 0.018708977912 0.025374002897 0.025964180099 
0.043716572861 0.053440732432 0.031292151055 0.025502460276 0.042263691552 0.022467732712 0.029845635204 0.032209895772 0.046126252311 
0.049732432531 0.03992397541 0.023707065595 0.023799827251 0.0299932609 0.023651589221 0.039223951922 0.03383580512 0.042465814871 
0.033803481098 0.027945284348 0.037401118796 0.044212682802 0.052537127789 0.067152832043 0.048784654385 0.054264260571 0.050176285241 
0.063477356142 0.080114326934 0.03471552242 0.073281077543 0.045971103234 0.11421935227 0.052371098314 0.10854935722 0.11385737303 
0.027661343431 0.031483209915 0.056744739646 0.053844970034 0.022644415653 0.063896519499 0.065597715729 0.023863175746 0.05629575404 
0.026315104793 0.024193352123 0.024615155889 0.03076830417 0.020774611103 0.030556547922 0.029334485221 0.031482695414 0.043616773579 
0.0232564357 0.041137145686 0.020522718849 0.020545911896 0.054263654619 0.043943847933 0.034737274545 0.030768836898 0.031982505786 
0.025274237714 0.03086282178 0.036683107861 0.043752951093 0.041301911504 0.040685713648 0.061715795403 0.033395933861 0.087449254619 
0.059225292171 0.10902392661 0.034505752273 0.081089164949 0.037716362918 0.049030453892 0.048825265179 0.044388275572 0.079499852369 
0.13502757587 0.044276213563 0.062405784626 0.032058071458 0.070757926331 0.013699659413 0.062823792513 0.035227135467 0.03544377092 
0.019532544705 0.0204800092 0.023307860745 0.041391101504 0.042316504837 0.035210217474 0.028976939037 0.017245298254 0.048674136641 
0.027167498646 0.081913569413 0.025182268004 0.020307405102 0.031176191127 0.03597443103 0.020550457376 0.018720420974 0.020707814641 
0.027218821545 0.030901398627 0.019435509528 0.076956303861 0.059476993402 0.03193762176 0.02634422493 0.032352611897 0.031606837576 
0.042491329654 0.051242984304 0.034986680796 0.10613465188 0.059619433224 0.05403271646 0.035735515438 0.06685218992 0.12064591413 
0.15537269274 0.046722232069 0.025441533185 0.063798800697 0.0462983902 0.063433929336 0.041462377585 0.050834714862 0.069194043647 
0.072104784395 0.047527974469 0.078613348933 0.037347564255 0.027006650055 0.022902258838 0.033481887122 0.03707572171 0.037507730853 
0.033288075669 0.040826615752 0.068310068374 0.045702495302 0.048547121379 0.018383087792 0.020993517751 0.026127378576 0.020755325708 
0.012562874815 0.027195171048 0.020602158579 0.022919029816 0.020972206981 0.034440342079 0.088113211866 0.067194004136 0.038450755632 
0.023407220397 0.027348337488 0.035262414872 0.037599929132 0.023661566218 0.027700445089 0.011310452369 0.027538562042 0.052298542133 
0.071713991252 0.090287092248 0.064204596081 0.026778566084 0.031397952638 0.028725073475 0.026717163272 0.05563890741 0.051575429946 
0.03619088313 0.048272659574 0.024645777725 0.051122313963 0.049472584339 0.051721205746 0.044959487743 0.061332189696 0.049349886231 
0.049741701971 0.040302267725 0.084723069399 0.055526803462 0.14620429974 0.033884865102 0.036646204028 0.041133003723 0.058454472894 
0.051304764929 0.040496980299 0.031614732228 0.028301545658 0.048018230143 0.043925717854 0.045529215791 0.078452109601 0.061524142677 
0.04365846518 0.044256174513 0.043773806678 0.04638128353 0.020713816181 0.020568966475 0.021205733884 0.012137173619 0.0093500706884 
0.027888528467 0.02216073202 0.017286171294 0.018515560341 0.022824321469 0.014261933308 0.032697901561 0.082639422434 0.032607033055 
0.026271617926 0.034582990852 0.045246531917 0.021406981072 0.028576979017 0.01154453965 0.019673908017 0.029722309514 0.038336112772 
0.059573016917 0.11594053936 0.034626725688 0.041731708292 0.067615376012 0.047749842009 0.029448433846 0.038447261383 0.033590925526 
0.04804461193 0.041348181248 0.019970617162 0.038198020129 0.06114164136 0.072980049862 0.041284960961 0.031624323633 0.043444354289 
0.079659463505 0.072552668718 0.068988772972 0.034924224937 0.094879784534 0.060630945117 0.044641326023 0.036951505469 0.052370140371 
0.040555400767 0.058756025341 0.056473268034 0.061376907406 0.049598363998 0.075672861046 0.0581161932 0.064181824638 0.042813876843 
0.032525466027 0.03299770009 0.020255397418 0.021539328981 0.02275363367 0.024737998458 0.017391210313 0.009041113579 0.028297096042 
0.0068519739701 0.015692895605 0.015073100884 0.018862340436 0.022531162382 0.014606769583 0.021683705966 0.020166916411 0.027052778897 
0.07481348058 0.034542770178 0.035286642234 0.041242312348 0.0076330486937 0.015978323976 0.018841636276 0.015096029489 0.02753061524 
0.038579876535 0.02197076852 0.022354873228 0.018710405314 0.057993007483 0.043133499981 0.030848809241 0.033659468082 0.057420791563 
0.036094273077 0.027368559648 0.030722180566 0.045574143228 0.077782235438 0.023583064066 0.028277412054 0.053860535916 0.049432439538 
0.060614842853 0.053673834862 0.024507183138 0.026882881161 0.067485202807 0.059822898781 0.096162216592 0.066992285849 0.024786861934 
0.054100489627 0.031054518806 0.047411876631 0.0343406557 0.045694764953 0.052637898446 0.035799201154 0.035650290362 0.068815136455 
0.074311711426 0.053228941573 0.028130479962 0.030290308628 0.0291597993 0.029418612584 0.016966524159 0.024225656249 0.024687414132 
0.026074564701 0.024637965682 0.022523514941 0.02918387035 0.020714223047 0.010156714972 0.013757196324 0.020996082223 0.0333618187 
0.032929305409 0.025676059779 0.023650001089 0.02359996989 0.035034587836 0.056170379023 0.032170933926 0.034274894831 0.047643097301 
0.018611868353 0.012399238625 0.010578917325 0.014349270093 0.029296674209 0.038134808895 0.016997168055 0.038436845523 0.040208749253 
0.043909629757 0.10917034697 0.04168345995 0.062655553864 0.057492639235 0.065268765184 0.061620889107 0.062354406518 0.032749479141 
0.047947217485 0.077457777684 0.050348094381 0.044880224532 0.066490764829 0.11042851874 0.060624749831 0.072292988713 0.083255643425 
0.059516709277 0.10520968048 0.11840403879 0.065789649115 0.046666520894 0.054434337994 0.032090083114 0.04631702049 0.036337944106 
0.091119742438 0.049504729127 0.075542177728 0.051668690401 0.079194117278 0.025211369345 0.020219190778 0.020009865418 0.021007701559 
0.01558954396 0.028608944015 0.013090345474 0.020813179508 0.022128183342 0.012419651849 0.029167565806 0.033364567344 0.02758016604 
0.030150172957 0.0279163238 0.020032930012 0.011570617727 0.027482464117 0.034086393603 0.033675250501 0.036079434218 0.039438633431 
0.033104981469 0.028466774953 0.022601475156 0.022451485789 0.021116356626 0.035497376166 0.031093050419 0.028711285431 0.1111489669 
0.056453845876 0.059266795979 0.052628076962 0.04733765181 0.053333918843 0.049697161055 0.043060007536 0.055176311787 0.031403696006 
0.043491709993 0.032840299641 0.053647689095 0.040998489742 0.062516846227 0.075655953432 0.092579233354 0.14319726831 0.13175646252 
0.090295588051 0.074992341541 0.057087396063 0.071251975178 0.065204072841 0.06115338299 0.054110715914 0.072809356353 0.039036028828 
0.063097562358 0.096796413057 0.043640972489 0.088471484967 0.051810658185 0.025652839499 0.020322717814 0.020116926197 0.020335998756 
0.02093895166 0.0073118238121 0.020721121868 0.013672027629 0.042964592732 0.021040154828 0.014272636143 0.014638350248 0.029072799395 
0.033115295111 0.038899430684 0.032046618231 0.04022047597 0.026558396077 0.0036839659364 0.029419162012 0.029619817218 0.023709325594 
0.03033785385 0.037078061663 0.036327555258 0.062736895067 0.078203057696 0.024316216891 0.025111450835 0.023196620359 0.035307401266 
0.032198768799 0.027027376269 0.025835511205 0.031045757105 0.097793586219 0.10915157064 0.027406126567 0.067425462381 0.062018412239 
0.028756242839 0.067849534506 0.02496337144 0.057245025616 0.028052237092 0.11126340539 0.042915242869 0.02131659118 0.047297328775 
0.031765554102 0.063451101313 0.043226694928 0.045911920288 0.073497476009 0.14096409289 0.041938024012 0.03846746536 0.093738607331 
0.032409672584 0.13133412466 0.058417489439 0.1287733602 0.12267859857 0.056572278446 0.063387428899 0.069793279491 0.05208387658 
0.11682740557 0.073752805141 0.017953080967 0.020436971302 0.020619899257 0.020019317523 0.020226443222 0.015993963861 0.0052887489598 
0.017355234005 0.050170796389 0.042547910744 0.030891892193 0.019695317255 0.032281135618 0.033023447126 0.0344779393 0.015967548448 
0.019262890131 0.023812752922 0.031027941061 0.029285245759 0.018929206663 0.028766351961 0.029933485567 0.036339286289 0.074293835922 
0.046497163359 0.025737605696 0.035368734185 0.04546609172 0.041499048223 0.016959124545 0.035925843153 0.019949841697 0.02137854789 
0.052557975938 0.095477336554 0.04690439429 0.035294048667 0.073483279994 0.11424315504 0.056505090232 0.075489041522 0.062816575453 
0.06839324833 0.033061971323 0.061531404356 0.045209191088 0.013186600391 0.029106430272 0.034566473765 0.036572979117 0.1501625824 
0.04177765236 0.069155047807 0.05577071019 0.1226809046 0.063065360737 0.061658654661 0.060998039814 0.052841360368 0.035887398187 
0.054141873534 0.03141562734 0.069842762208 0.056286081506 0.17179263083 0.098769388546 0.067392077167 0.086052771965 0.076468317167 
0.10420096165 0.065642272966 0.066008825426 0.021542685573 0.017384377851 0.020863603544 0.020672678538 0.020003477372 0.020328812346 
0.025566011994 0.02490247641 0.01489413604 0.041670218663 0.04174784133 0.036960962331 0.038123638356 0.028773211553 0.030945705011 
0.029661585611 0.030990105631 0.023930744868 0.032852043323 0.025972981345 0.029925929749 0.027160540696 0.010804973041 0.014296231689 
0.026993701916 0.032395894721 0.013039392325 0.030344538283 0.068650667484 0.061242383569 0.037735684501 0.018174726411 0.03080308429 
0.011829365382 0.018555628243 0.022699028755 0.018710372357 0.023427929353 0.02375457511 0.043125789599 0.013842282243 0.025203322002 
0.030685259137 0.045385387982 0.034106603513 0.042922661766 0.049706061816 0.064373796666 0.099426455489 0.054150063968 0.051384754944 
0.037064134122 0.05196494441 0.015743514991 0.034187160962 0.026330847176 0.039046057049 0.063286600319 0.066741421031 0.035534886287 
0.035102080739 0.036063897709 0.037215930777 0.037670838243 0.026146015812 0.035230383025 0.18180381027 0.056314075452 0.040553717883 
0.052346895324 0.033146046708 0.038375556259 0.017800273281 0.02079493387 0.033312912087 0.036136160934 0.020646435562 0.022751583284 
0.028603786816 0.018053114318 0.025114645929 0.026974755528 0.024184459968 0.020050638158 0.040418617151 0.042826519661 0.030118850943 
0.04821794437 0.034322513687 0.048127592656 0.016919274105 0.019138294763 0.04737213419 0.055102641723 0.040703759055 0.038802411222 
0.061475404234 0.033399693684 0.028605711022 0.021603972583 0.020998104447 0.020704331445 0.026029724876 0.086040996628 0.02661298209 
0.022623521049 0.022232010028 0.028297454907 0.021414954977 0.024111575062 0.045098185444 0.094664586482 0.036269536089 0.028919327835 
0.030983170211 0.03303118908 0.02166371295 0.029275711523 0.028227515166 0.060229851284 0.041872808803 0.056412441013 0.037055821972 
0.040212925006 0.037983500777 0.042617770652 0.018133647682 0.09270706843 0.018057907705 0.025422451671 0.034635103928 0.028524802807 
0.03199047423 0.033154797847 0.037961881583 0.02510976509 0.045335222428 0.082876049656 0.095220148994 0.070507202277 0.036258688577 
0.044894714789 0.038233533803 0.023472462706 0.017382658614 0.021711521681 0.013926667653 0.021231728718 0.020301609015 0.065833160273 
0.035205119961 0.024731316477 0.030725790319 0.023553457174 0.03744507163 0.037356832772 0.04583142038 0.039594253647 0.054111656403 
0.0753273473 0.033892343207 0.042436685452 0.034200896396 0.052145230573 0.037837744945 0.027152356451 0.033793379673 0.020466683609 
0.02613734623 0.047020907284 0.031393165927 0.022732668304 0.029882914048 0.029266755522 0.031116764297 0.025227197415 0.025461996734 
0.027720317367 0.050764891818 0.050152512606 0.044089003852 0.022887730681 0.019106363148 0.021073810082 0.02398510663 0.031262354495 
0.033464451033 0.049728503787 0.018950277773 0.042460368456 0.019710468166 0.041636955521 0.01785770394 0.056228436341 0.018762391965 
0.026176398366 0.016390462603 0.026882103645 0.051784417779 0.032417789065 0.033509297027 0.026360923531 0.030611559919 0.046581678374 
0.026018036486 0.023982495727 0.044174286101 0.046934261666 0.043234719941 0.023556868895 0.0047235879528 0.016543557168 0.021546541858 
0.028560102439 0.026216976356 0.020389918537 0.021097988639 0.018940738879 0.028087270615 0.038168681679 0.046383582213 0.048407886952 
0.05986337449 0.038714054774 0.040355599766 0.028404563922 0.059601134087 0.036027734042 0.02543796055 0.027037269207 0.024862857127 
0.058623544231 0.030947237653 0.030794816977 0.024806500514 0.027820313566 0.023648098167 0.014696746151 0.022098519036 0.063067042855 
0.052616675625 0.021870133337 0.024989388751 0.013828357306 0.021026797531 0.02110223821 0.025717774588 0.023059190267 0.021722832643 
0.029240411093 0.021790311176 0.029209923695 0.024361782562 0.024057516648 0.033575154004 0.015224086238 0.021447416231 0.04369462577 
0.033762817859 0.081821923923 0.027098715555 0.030590295493 0.036330696872 0.027767783596 0.03700597183 0.031020319663 0.023170357069 
0.061049332071 0.082212503174 0.060916777325 0.01966042874 0.016318976483 0.034849594648 0.021530748741 0.023097868488 0.013077694586 