# vtk DataFile Version 4.2
vtk output
ASCII
DATASET POLYDATA
POINTS 5065 float
-17.9328 18.5444 30.2031 -17.7386 18.1968 30.0076 -17.9466 18.1954 30.2055 
-17.5472 18.3955 29.8367 -17.5379 18.1884 29.8088 -17.2041 18.1971 29.5091 
-17.1892 18.1149 29.4622 -14.336 18.1974 27.2437 -14.3137 17.9867 27.2082 
-14.538 17.9955 27.3276 -14.138 17.9955 27.1295 -13.9558 18.214 27.0522 
-13.9207 17.9676 27.0072 -13.738 17.9955 26.9284 -18.1216 18.4524 30.4245 
-18.136 18.1755 30.4094 -17.2933 18.4007 29.616 -16.938 18.1955 29.2785 
-16.938 18.0512 29.2075 -14.6505 18.2004 27.431 -13.5232 18.192 26.842 
-18.2672 18.1955 30.6075 -18.1449 18.845 30.421 -17.7517 18.5462 30.0187 
-17.5257 18.8541 29.787 -16.9188 18.3922 29.2843 -16.8248 18.2028 29.1884 
-15.338 18.1955 27.9289 -15.054 18.1906 27.7275 -15.2997 17.9935 27.8279 
-14.9666 18.0029 27.6186 -14.7033 17.9931 27.4175 -14.6269 18.4933 27.4044 
-14.33 18.4509 27.2238 -13.8343 18.4044 26.9906 -13.4555 17.9945 26.8075 
-13.1334 18.2127 26.6784 -12.9711 17.9961 26.606 -13.138 17.9955 26.6688 
-12.9355 18.1958 26.6054 -12.7312 17.9973 26.5448 -9.95057 17.7954 27.8324 
-9.8538 17.7955 28.0075 -9.93797 17.704 27.8075 -9.77228 17.9955 28.2075 
-9.74807 17.738 28.2279 -9.73878 17.7978 28.3018 -18.2565 18.4916 30.6027 
-18.3385 18.1957 30.7366 -17.9087 18.9103 30.1755 -17.7238 18.99 29.9716 
-17.157 18.7896 29.4522 -16.5442 18.3924 28.9749 -16.5605 18.2004 28.985 
-16.3746 18.199 28.797 -16.3517 18.3971 28.7874 -16.2352 18.1955 28.6075 
-15.538 18.1191 28.0075 -15.2695 18.3755 27.8737 -14.1645 18.7112 27.1423 
-13.5007 18.4084 26.8208 -12.7353 18.6139 26.5456 -12.3374 18.3785 26.4783 
-12.538 17.9955 26.5027 -10.1309 17.7995 27.578 -9.84969 17.9955 28.0075 
-9.72073 17.9953 28.3961 -18.5288 18.392 31.2323 -18.4578 18.1955 31.0075 
-18.5347 18.1477 31.2096 -18.3367 18.4666 30.7409 -18.3333 19.1164 30.63 
-17.971 19.3553 30.1788 -17.3797 19.2558 29.6273 -16.9129 18.7104 29.2356 
-16.1541 18.4149 28.5508 -15.4985 18.1996 28.0133 -15.5188 18.4154 28.0397 
-14.9264 18.5228 27.616 -14.2966 18.9938 27.2167 -13.9256 18.7927 27.0224 
-12.9502 18.6986 26.6092 -12.5349 18.6948 26.5079 -12.338 17.9955 26.4679 
-12.538 17.8198 26.4075 -12.1394 17.8345 26.4065 -11.1591 17.9971 26.6263 
-11.1226 17.7971 26.6105 -11.3831 17.7945 26.5105 -10.938 17.7955 26.7391 
-10.8912 17.9968 26.7902 -10.849 17.7955 26.8075 -10.1296 17.9939 27.5628 
-10.3347 17.794 27.3218 -9.94875 18.0144 27.8205 -9.72705 18.1694 28.2154 
-9.66766 18.1468 28.3457 -9.64432 17.7929 28.633 -9.44793 17.7955 29.0075 
-9.53797 17.7288 28.8075 -9.14954 17.5932 29.452 -9.23932 17.7971 29.4221 
-9.06878 17.5955 29.6075 -9.01549 17.7955 29.8075 -8.93531 17.5988 29.8044 
-18.5874 18.1955 31.4075 -18.4582 18.4859 31.0135 -18.3662 18.802 30.7463 
-18.1435 19.3625 30.3672 -17.5862 19.2265 29.8124 -17.1385 19.3 29.3984 
-16.9702 19.4837 29.2365 -16.5339 18.7733 28.9071 -16.3582 18.5911 28.7775 
-16.0769 18.1998 28.4154 -15.738 18.1955 28.1343 -15.5204 18.6013 28.0494 
-15.1701 18.814 27.7926 -14.6626 18.8652 27.4482 -13.9824 19.0937 27.0453 
-13.5362 19.137 26.8385 -13.1338 18.748 26.6717 -12.7385 19.0511 26.5653 
-12.5333 19.3389 26.5324 -12.2659 18.7911 26.4765 -12.138 17.9955 26.4518 
-11.3776 17.9935 26.5576 -10.7165 18.0047 26.934 -10.738 17.7955 26.9126 
-10.64 17.7955 27.0075 -10.3488 17.994 27.2951 -9.79118 18.1955 28.0075 
-9.64403 17.9955 28.6075 -9.4104 17.9905 29.0746 -9.33805 17.7939 29.2446 
-9.33797 17.7109 29.2075 -8.87745 17.7989 30 -18.5921 18.3856 31.5795 
-18.6463 18.1955 31.6075 -18.5413 18.5988 31.261 -18.4616 19.1856 30.8268 
-18.4438 19.3986 30.7504 -18.1257 19.5919 30.2781 -17.7942 19.3104 30.0073 
-17.2896 19.612 29.49 -16.7456 19.2421 29.0555 -16.3412 18.7951 28.7569 
-15.9835 18.4013 28.3709 -15.9197 18.1982 28.2596 -15.7689 18.3961 28.2 
-15.4909 18.7904 28.0305 -14.9186 19.1051 27.6083 -14.644 19.1953 27.4282 
-14.33 19.4748 27.2532 -13.1454 19.5434 26.6948 -12.8505 19.397 26.5965 
-12.3436 19.1949 26.506 -12.1068 18.3091 26.4616 -11.938 17.9955 26.4606 
-11.784 17.9934 26.4758 -11.3287 18.7368 26.5569 -10.9449 18.2337 26.734 
-10.788 18.1996 26.8449 -10.1922 18.1856 27.4217 -10.0361 18.1955 27.6075 
-9.92227 18.1929 27.7583 -9.73499 18.4041 27.919 -9.55478 18.458 28.233 
-9.53797 18.2068 28.6075 -9.53831 17.9954 28.8226 -9.16531 18.0005 29.4932 
-8.96164 17.9962 29.8251 -18.6265 18.4048 31.8508 -18.6936 18.1955 31.8075 
-18.5592 18.873 31.2172 -18.4943 18.8194 31.0126 -18.2618 19.6044 30.4319 
-17.8699 19.6005 30.0349 -17.6376 19.6041 29.8008 -16.7333 19.6695 29.0085 
-16.4686 19.1133 28.8262 -16.174 18.7949 28.6018 -15.9841 18.7771 28.4164 
-15.7118 18.8007 28.2105 -15.5026 19.0371 28.0274 -15.1085 19.3507 27.7409 
-14.1465 19.5875 27.1628 -13.8758 19.5835 27.0007 -12.338 19.3955 26.5023 
-12.1458 19.1932 26.4954 -11.9181 18.6172 26.4656 -11.5465 18.2151 26.5098 
-11.1403 18.3051 26.625 -10.5379 18.1959 27.0531 -10.3824 18.1999 27.2073 
-9.53797 18.3955 28.3263 -9.37977 18.3955 28.6075 -8.72874 17.9991 30.1385 
-8.73797 17.6894 30.2075 -8.74156 17.5971 30.0708 -8.63197 17.5955 30.4075 
-8.53972 17.8072 30.634 -8.53949 17.5842 30.6119 -8.48717 17.5955 30.8075 
-18.6607 18.3955 32.2075 -18.7047 18.1977 32.0341 -18.6809 18.1896 32.5069 
-18.6005 18.5835 31.6635 -18.605 18.7927 31.4903 -18.5378 19.1409 31.0021 
-18.5648 19.4076 30.9455 -18.5376 19.5975 30.8083 -18.3724 19.8123 30.4536 
-17.7861 19.8182 29.875 -17.4144 19.7942 29.5535 -16.9803 19.8662 29.1825 
-16.522 19.4851 28.8569 -16.3225 19.0477 28.7234 -15.7294 19.02 28.2268 
-15.4786 19.3664 28.0072 -14.9452 19.7021 27.6267 -14.6594 19.7493 27.448 
-14.1403 19.7886 27.1578 -13.5566 19.5857 26.8549 -12.7888 19.6217 26.5675 
-12.4571 19.5876 26.4939 -11.729 18.4961 26.4772 -11.5438 18.6367 26.5048 
-11.1187 18.701 26.6285 -10.9424 18.7557 26.7066 -10.7617 18.5775 26.8317 
-10.3273 18.4334 27.2187 -10.1382 18.3975 27.4076 -9.93829 18.4101 27.6095 
-9.76867 18.4357 27.8151 -9.54916 18.6144 28.0218 -9.30293 18.6102 28.3855 
-9.13806 18.3956 29.0077 -9.25032 18.1303 29.1791 -8.92816 18.1977 29.598 
-8.8126 18.0848 29.9367 -8.73888 17.8033 30.2226 -8.4724 17.7955 30.8075 
-18.6405 18.4023 32.6435 -18.6346 18.1955 32.8075 -18.664 18.3955 32.4075 
-18.6631 18.593 32.2152 -18.6475 19.0571 31.4186 -18.1381 19.7949 30.2074 
-17.1976 19.7985 29.3794 -16.5383 19.9582 28.8183 -16.1616 18.9961 28.5981 
-15.2426 19.528 27.8227 -15.2839 19.7831 27.846 -14.3337 19.9388 27.2417 
-13.8136 19.8059 26.9581 -13.3269 19.8184 26.7435 -13.0763 19.7924 26.6348 
-12.1403 19.4295 26.4785 -11.938 18.9955 26.4868 -11.7108 18.9935 26.4982 
-11.4398 18.9881 26.532 -11.1281 18.9474 26.608 -10.5253 18.5682 27.0184 
-9.66706 18.5955 27.8075 -9.25092 18.7955 28.2075 -9.13153 18.5602 28.7577 
-9.13797 18.1388 29.4075 -8.73797 18.2731 29.8075 -8.72576 18.1661 30.0051 
-8.54343 17.9941 30.4824 -8.40391 17.9955 30.8075 -8.47155 17.5955 31.0075 
-8.46202 17.5955 31.2075 -8.38885 17.3955 31.2075 -8.40045 17.3955 31.4075 
-8.45059 17.5955 31.4075 -8.42979 17.3958 31.652 -8.47347 17.5955 31.8075 
-8.48667 17.3955 32.0075 -18.5899 18.1955 33.0075 -18.6588 18.9873 31.6201 
-18.6313 19.2052 31.2121 -18.6909 19.6334 31.0188 -18.7049 19.954 30.789 
-18.3612 19.9822 30.335 -18.0998 20.0081 30.0539 -17.8202 19.9159 29.8616 
-17.4499 19.979 29.5219 -17.0759 20.0517 29.2075 -16.8031 20.1895 28.9808 
-16.2316 19.9216 28.5865 -16.2656 19.3985 28.6557 -16.1238 19.218 28.5564 
-15.9525 18.9952 28.4113 -15.8889 19.4557 28.3337 -15.5486 19.6942 28.0435 
-15.2805 20.0001 27.8275 -14.727 19.993 27.4689 -14.138 19.9955 27.1271 
-13.5388 19.8617 26.822 -12.7364 19.8146 26.5118 -12.3036 19.8311 26.4031 
-11.83 19.193 26.4896 -10.7388 18.7993 26.8077 -10.5028 18.8111 26.9601 
-10.3304 18.596 27.1759 -10.0688 18.5801 27.3885 -9.76546 18.6203 27.6389 
-9.52671 18.8086 27.7495 -9.14025 18.8075 28.309 -8.95262 18.5752 28.9477 
-8.75237 18.5245 29.3826 -8.73641 18.3923 29.6093 -8.56839 18.2143 30.2126 
-8.492 18.1699 30.3974 -8.42521 17.7955 31.0075 -8.45371 17.5955 31.6075 
-8.52277 17.6181 32.0903 -8.54139 17.3983 32.2372 -18.5733 18.3955 33.0075 
-18.6556 18.5992 32.6359 -18.6822 18.7295 32.417 -18.6833 18.8145 32.1992 
-18.7366 19.2201 31.7323 -18.8114 19.5592 31.377 -18.7443 19.5541 31.1849 
-18.5682 19.995 30.5699 -16.437 20.2394 28.691 -14.4505 20.1625 27.2606 
-13.7865 19.9804 26.9142 -13.4989 20.2491 26.7102 -13.1496 20.1379 26.5821 
-12.5557 19.8746 26.4404 -11.9075 19.7624 26.3824 -11.938 19.3955 26.4648 
-11.4395 19.1942 26.51 -11.059 19.2602 26.5612 -10.938 18.9955 26.6627 
-10.5791 18.9883 26.8425 -9.93797 18.5955 27.4847 -9.60237 18.8545 27.5988 
-9.20314 18.9611 27.9728 -8.94395 18.6211 28.8449 -8.95188 18.4639 29.1792 
-8.54106 18.4364 29.8137 -8.5524 18.3654 29.9669 -8.34698 18.2091 30.6979 
-8.33791 17.9953 31.0072 -8.3935 17.7926 31.3242 -8.38885 17.7955 31.6075 
-8.42259 17.7844 31.8328 -8.58486 17.5955 32.4075 -18.5379 18.194 33.2282 
-18.5908 18.5955 33.0075 -18.7241 19.0415 32.1835 -18.9218 19.963 31.2002 
-18.9152 20.1243 31.0147 -18.6975 20.2241 30.6074 -18.5379 20.1984 30.4102 
-18.3421 20.1857 30.2071 -18.1001 20.1752 29.9811 -17.7223 20.3581 29.5937 
-17.5083 20.2567 29.4655 -16.7894 20.3588 28.9109 -15.958 20.1919 28.3094 
-16.0396 19.5897 28.4428 -15.675 19.9986 28.1164 -14.932 20.1938 27.5667 
-14.7571 20.2549 27.4278 -14.0005 20.1791 26.9833 -13.7412 20.2506 26.8189 
-12.8327 20.2017 26.4374 -12.5297 20.289 26.3177 -12.1602 20.1892 26.269 
-11.7415 19.4289 26.4501 -10.8519 19.2875 26.6081 -10.2355 18.8354 27.1424 
-9.92938 18.7897 27.38 -9.7552 18.7938 27.4988 -9.33639 18.9962 27.7396 
-8.93509 18.9985 28.2142 -8.95538 18.8127 28.473 -8.87636 18.78 28.5913 
-8.72814 18.7813 28.7944 -8.74189 18.6009 29.2397 -8.48044 18.5942 29.6077 
-8.39961 18.4541 30.1871 -8.33717 18.3917 30.427 -8.32608 17.9589 31.2112 
-8.5354 17.8013 32.3303 -8.57342 17.3955 32.4075 -18.5288 18.404 33.301 
-18.6744 18.7845 32.7035 -18.7592 19.1534 32.3529 -18.8135 19.4812 31.6011 
[...]
CELL_DATA 9996
FIELD FieldData 1
Area 1 9996 double
0.050101753817 0.029211051331 0.01945442413 0.026738601604 0.020560748769 0.030115072544 0.025366258815 0.038647619805 0.050290998464 
0.071983240711 0.035001084358 0.046484559619 0.015136953988 0.025859169854 0.037706776791 0.044952769153 0.049932471662 0.032942054767 
0.057770955409 0.01987727577 0.077113486244 0.050610091455 0.034760731731 0.01134271594 0.036490723511 0.048496993583 0.035228219226 
0.019774953242 0.053684325106 0.053947603866 0.047292910943 0.030312701272 0.019383068051 0.024714548184 0.0094342518977 0.030689868624 
0.010345396896 0.021840775497 0.033292799077 0.043722166852 0.061126059374 0.057327666334 0.066567213408 0.10389626203 0.098492568434 
0.014234280091 0.032045340853 0.025407823579 0.023389443296 0.026129478948 0.031552334264 0.073178116558 0.044450652046 0.075421103821 
0.055467894182 0.040475685784 0.042533823161 0.037655214755 0.021378000969 0.065298271874 0.038088397767 0.014792504004 0.020012206236 
0.021449957545 0.019332005652 0.026915216159 0.040105854667 0.021683659648 0.078545208346 0.077639348559 0.048905815153 0.063698348946 
0.10709940351 0.053663152548 0.046140733129 0.026597029189 0.033200553692 0.0076663783726 0.028719554141 0.058888605406 0.063475599824 
0.095036283208 0.045798720871 0.05581591671 0.072902582351 0.045491301337 0.052910015853 0.055717394711 0.063012451473 0.10119892518 
0.038888164797 0.0202187505 0.035690448762 0.02820809214 0.022795509947 0.011319978002 0.031884761019 0.030312207487 0.023094919663 
0.019114293812 0.016092959422 0.034267146381 0.014109432651 0.018846599072 0.024835832931 0.024565147541 0.0336533544 0.043270417726 
0.027095763746 0.046537464473 0.078647500986 0.066386948141 0.063340109322 0.04636096592 0.052623563679 0.08386271235 0.12463619806 
0.07908698989 0.093169543286 0.051349803238 0.029919373424 0.027303683193 0.01116234057 0.019556882615 0.027734356885 0.084641121696 
0.06745068274 0.08407878908 0.058163601237 0.042712626288 0.16370791353 0.10566278918 0.051958853141 0.048682647931 0.065833072861 
0.052445874431 0.038436431018 0.016784437734 0.023280839895 0.031757708983 0.022998170889 0.01598402276 0.0142628547 0.034609012387 
0.03460242745 0.022111064884 0.022823748777 0.013034425475 0.018629012302 0.022803558569 0.041119072824 0.011056224413 0.0085677165786 
0.046333089925 0.024686580478 0.020337782319 0.034398458366 0.025234124625 0.050002178504 0.041160796856 0.065835498091 0.030182704158 
0.037878713793 0.042610224215 0.04742375547 0.056051561683 0.055102709854 0.10626036082 0.1258164934 0.021298674132 0.033476209097 
0.026044041661 0.022690655581 0.022416358685 0.029073975133 0.027705629528 0.032898237359 0.086055437556 0.089206741919 0.089189111968 
0.069793200406 0.088474334684 0.075334471897 0.15101792794 0.076680516693 0.057873992266 0.046455820204 0.061640625837 0.058632542 
0.050175899353 0.037322203345 0.016744831735 0.042288077608 0.085042967008 0.037311244027 0.022649680956 0.053323161155 0.043836145318 
0.033909612687 0.031855569917 0.026239990248 0.023486085286 0.024208285536 0.03267812693 0.024319897078 0.02915884397 0.025552287152 
0.020719665469 0.04583141679 0.024013060202 0.02285233669 0.027204065546 0.03660509168 0.038082026124 0.049383337011 0.056207962471 
0.027765525924 0.058118654165 0.02450199394 0.042967398198 0.034328269619 0.052981522167 0.088784889362 0.052606252683 0.066570231228 
0.0678144514 0.024652935195 0.043409439056 0.046519171094 0.028305594675 0.030924245237 0.086742206052 0.027122122125 0.04939306486 
0.071994446542 0.053012913582 0.093089986228 0.061812660311 0.11791701095 0.16950836718 0.11581737581 0.052627646377 0.01965631111 
0.040003158319 0.070037593369 0.031392997262 0.048110833486 0.046023066207 0.070461834115 0.034611985144 0.035056610642 0.021500358553 
0.031721563084 0.051436332512 0.029250723219 0.024565866236 0.017697740472 0.032094412965 0.055803640936 0.014048991602 0.039760057353 
0.027775828757 0.065595460392 0.048930849105 0.039802631713 0.039457297104 0.020471048426 0.017827491832 0.025148015368 0.022458096971 
0.048263624775 0.024958242892 0.026248308477 0.040910293051 0.036539070145 0.035717990948 0.031204561018 0.024955855883 0.04774824186 
0.021949417749 0.039054991168 0.04830459944 0.043819190004 0.080314531662 0.060686791707 0.05924218969 0.062964849518 0.040541486409 
0.028843636466 0.050066891514 0.051704543932 0.037033579753 0.031121637149 0.037341090382 0.070477144312 0.1230080634 0.065149765222 
0.099489883972 0.10284919164 0.020129670202 0.077556982851 0.078755855214 0.098486879487 0.039895761332 0.038367494873 0.022439505148 
0.019878910012 0.080470982697 0.055610669658 0.050922560941 0.054259208095 0.046591065541 0.044309231372 0.058086828824 0.049963595414 
0.061670231825 0.023103173344 0.03412007625 0.026315009014 0.021599170888 0.016563659542 0.038818846844 0.018272904176 0.03770489488 
0.031310333837 0.1135106703 0.039000294417 0.048297368475 0.019942165188 0.026744768347 0.014950379173 0.013530188228 0.048024816168 
0.018683754192 0.032064311858 0.020651322866 0.037810967473 0.050515988982 0.041697902461 0.034921253295 0.034759315598 0.025015753698 
0.023096686694 0.051951502976 0.036223182875 0.050806142164 0.036648453913 0.051661728089 0.025920220943 0.022725749987 0.070486044718 
0.062730289727 0.031201436824 0.023752523988 0.020827795938 0.026811876865 0.037707349506 0.049437554538 0.039284452286 0.078971269696 
0.093929497075 0.089196039272 0.049011016904 0.031765465951 0.039002116829 0.056901827584 0.04427643056 0.043802315224 0.021229280297 
0.023454470803 0.037412153383 0.048328010954 0.03935913289 0.033508021601 0.027117237412 0.037578476149 0.04295474199 0.056271153999 
0.040972094781 0.036375095257 0.029545999653 0.031548323403 0.032474093921 0.010709213602 0.02775429 0.051762782869 0.042872564724 
0.044762035502 0.049733831968 0.035078856731 0.019560099897 0.023843488464 0.042793691445 0.023847150314 0.014476036 0.039252384574 
0.045317644629 0.019674364492 0.020115382065 0.021317478743 0.021327306731 0.025376786947 0.036130901933 0.021412112114 0.024954775049 
0.019746292981 0.0354127767 0.059270831723 0.02476338383 0.035642216188 0.038246346858 0.032469723987 0.028092990726 0.083449210118 
0.032218070876 0.054176372097 0.025103233618 0.026521180415 0.030931564166 0.081335083612 0.091467713869 0.060973044334 0.024083353154 
0.030688131704 0.031320465122 0.10577299884 0.055424269601 0.015847728641 0.044382681847 0.059452313957 0.053586023869 0.023156420839 
0.041944312509 0.041602809403 0.03192881265 0.03534970612 0.034667029296 0.034635692831 0.053178194498 0.037408667839 0.031193526147 
0.043088320859 0.045145077561 0.048303323137 0.038001791694 0.024252547795 0.025260780989 0.037599001101 0.021147043388 0.026421346533 
0.027216409259 0.030470035356 0.018500505877 0.031829978893 0.066094701797 0.019091474135 0.052027917807 0.032402868805 0.040924092142 
0.061630862864 0.029780735542 0.015157106883 0.02663111375 0.038081610799 0.034637034474 0.021660444173 0.02106511935 0.020551987844 
0.020649951551 0.020128263611 0.020270783364 0.031113297046 0.026222855286 0.037143168085 0.023439415807 0.033154719829 0.079548221725 
0.069340050462 0.028590839787 0.054188835604 0.051959833062 0.025755337742 0.048885419599 0.030926853579 0.029337198898 0.041812013859 
0.016519459325 0.048100089371 0.055997247384 0.039859783926 0.062307608447 0.057472687584 0.088434407928 0.038170383799 0.031161827178 
0.03504118084 0.093248800055 0.082598763075 0.044236505791 0.035285319376 0.080349232325 0.048781930886 0.028942585448 0.042961212832 
0.033314377686 0.025881431078 0.046615552725 0.047797220824 0.064439211531 0.031291506701 0.035701588535 0.076085883434 0.019028775344 
0.02256679161 0.028292952769 0.052286144621 0.024317479335 0.018599506472 0.031451668972 0.031604597862 0.027673078411 0.017662615249 
0.024970149949 0.028300017903 0.022522243666 0.061105936269 0.020309402098 0.054852738169 0.011960416004 0.029567915454 0.056825392558 
0.063676455497 0.034511692979 0.028101803642 0.02688692539 0.032244137517 0.027301796386 0.033460818669 0.041440712237 0.022750511503 
0.032799102907 0.020688042567 0.02102786724 0.019718676746 0.028052020647 0.033901269198 0.022753529499 0.037135654177 0.037195421569 
0.03737986383 0.023564118408 0.065786043431 0.065374147456 0.087132272159 0.037370936467 0.041503025344 0.069483533244 0.033741906213 
0.035214056155 0.040221292862 0.032042164687 0.10833214098 0.071018380397 0.027591757036 0.039705618519 0.093043746745 0.074479898134 
0.049809502827 0.08545331849 0.074638252787 0.066128298817 0.046331910467 0.048760237642 0.040587288019 0.041571066857 0.052737559383 
0.073903382808 0.071820127882 0.040888109969 0.055875886411 0.080318509784 0.038692930653 0.021971041787 0.039082725785 0.039873401259 
0.033086006661 0.028339547765 0.048782607728 0.026878346677 0.040219747033 0.043262289317 0.017759389529 0.024776826474 0.021450801251 
0.023269980676 0.035267552363 0.049934354926 0.051436375965 0.033071257965 0.013651873935 0.033128745973 0.020848478242 0.041290729885 
0.036307008913 0.020667951438 0.036016291818 0.030123945898 0.041090830766 0.024300419573 0.022402486964 0.029112068992 0.029244241383 
0.023877399967 0.045916216918 0.032744111175 0.017362719078 0.030868156178 0.029804734516 0.035519459664 0.024894666896 0.024508705526 
0.041410305314 0.02589368507 0.044596001011 0.0535243803 0.049184654489 0.046875565803 0.029329823987 0.031225507318 0.029292746113 
0.10150761196 0.035182062229 0.1233462979 0.10800469071 0.035143540265 0.060965340044 0.026864541711 0.054710941189 0.038700977258 
0.070894423492 0.051895221787 0.045504131191 0.029782518669 0.062896296177 0.1131271022 0.039292511588 0.019509596195 0.090701114256 
0.070066427951 0.066863485286 0.03845052384 0.033956363575 0.052990011031 0.036422406918 0.024429408807 0.044771309834 0.034536061101 
0.051770410375 0.028180963454 0.055260501335 0.038569091992 0.025254182325 0.046621705542 0.022713238447 0.018938231052 0.029862859018 
0.034405370365 0.04842598781 0.034649402831 0.027222822203 0.032574296231 0.061451272048 0.018486189122 0.013711154873 0.026013688053 
0.019008225507 0.04690678495 0.034737315922 0.064060461736 0.056820889301 0.035741065157 0.017737128949 0.023652073532 0.018885372122 
0.067415841549 0.035307022515 0.020906545207 0.028847154097 0.036404156519 0.05768133936 0.030795765637 0.068267668584 0.070545496943 
0.052165249321 0.040341916592 0.056783056681 0.045508755136 0.058637226984 0.043296439308 0.024316593208 0.021314868909 0.054060484043 
0.034819255953 0.029476455052 0.03266258386 0.053789351839 0.037336848928 0.068762517913 0.059144124372 0.062142106403 0.05629235934 
0.021837778489 0.046030111233 0.08702964572 0.041269640124 0.068043420903 0.043400717517 0.033346957553 0.035668522335 0.090217718055 
0.041212017916 0.030253180657 0.049119425451 0.081881851256 0.062984350312 0.060904707018 0.037754068935 0.028698378785 0.037018331766 
0.04412149498 0.035587700505 0.039578941109 0.029676674089 0.062606655254 0.090362261356 0.039818716548 0.031782742454 0.030077060596 
0.02902462047 0.050043387238 0.014182886078 0.033548237602 0.053137955615 0.032958761066 0.037552845639 0.01922964726 0.030933181603 
0.058784575286 0.048190123759 0.018810610024 0.03057266086 0.076587559925 0.037415029274 0.066977491448 0.033855902218 0.039112970912 
0.036625420059 0.015408481534 0.033522571731 0.03333863062 0.026876805673 0.0361191621 0.021360091899 0.020744871469 0.035530471561 
0.043462276163 0.069119687555 0.052220034562 0.063842659479 0.049543867703 0.041471460882 0.055524166273 0.050499134255 0.070011063077 
0.060858751731 0.044870585588 0.024768258515 0.028303696612 0.03277885268 0.059445429552 0.055803880165 0.034762714924 0.035975409815 
0.066448127148 0.044167312682 0.08798686878 0.047600116231 0.055770956522 0.074685453708 0.040933506974 0.070899890729 0.039280620965 
0.02711455385 0.035078193697 0.079889901533 0.026671442029 0.030629782942 0.091185904867 0.03365346479 0.083978010214 0.050114729457 
0.044926538365 0.046083922022 0.073414339976 0.068408794485 0.042437187372 0.057601180835 0.054681287924 0.024904333358 0.098216726999 
0.10779147614 0.085390991762 0.067971978541 0.037029480419 0.09774564473 0.11184567511 0.031980739475 0.04345017124 0.028892953605 
0.034429267452 0.025898799247 0.045040552545 0.046230683052 0.056484217285 0.033409289171 0.049375915729 0.059896607741 0.073620195665 
0.019010690068 0.045763230723 0.05692003882 0.030446875074 0.072448904725 0.063788302864 0.055771086541 0.027441417922 0.022678758847 
0.03696015167 0.015046271875 0.029188925783 0.0687789912 0.061869355692 0.048361029687 0.031780205796 0.042000726787 0.020204739637 
0.032896129508 0.053445988202 0.080622109153 0.12377769504 0.02336224749 0.032112412583 0.039251644502 0.039325756019 0.033598909239 
0.041135456287 0.023625904382 0.040268468486 0.069980522113 0.09189707055 0.075340925915 0.057796115046 0.027628286224 0.040948728612 
0.053841929747 0.066689692184 0.089124363443 0.037586248756 0.053142767664 0.061256503638 0.062977469562 0.064867727994 0.041629495465 
0.054573029122 0.040366539083 0.058941036284 0.048825349258 0.065304309908 0.036928742215 0.048198616788 0.050828963832 0.054388382172 
0.064262259224 0.060100751919 0.057641964865 0.04878767828 0.05857715254 0.081701619808 0.053072148223 0.053109646802 0.047149334868 
0.042401171337 0.058131072954 0.041865924396 0.034477018487 0.053158038706 0.035147038114 0.033665864462 0.020838109841 0.047397273884 
0.037609878938 0.058006079091 0.031737130277 0.048476866888 0.05570278486 0.034297303996 0.062239904864 0.061700253051 0.048293356369 
0.045309435009 0.08731148771 0.062930110316 0.032941946054 0.02481509451 0.035212073831 0.033954658701 0.036992250079 0.026401693957 
0.017157830656 0.026188749754 0.050320085711 0.041755985774 0.043123029154 0.027542447758 0.058984763882 0.023183135251 0.027836971646 
0.036524035656 0.062687834362 0.058889852411 0.10391347996 0.063067173618 0.041317486761 0.040489185607 0.029797154969 0.026423749586 
0.023847657778 0.037363966135 0.034793214041 0.068124812222 0.041496696804 0.066806435895 0.074324929112 0.079649944549 0.042362137915 
0.038777088999 0.10031840195 0.039237910371 0.037427920595 0.044670089075 0.084145338528 0.059700845466 0.063334305063 0.028964731756 
0.066492203412 0.075889551957 0.05090840551 0.044190940149 0.044948915789 0.042370782221 0.10272384747 0.10526406927 0.050785337461 
0.056455386252 0.033826679014 0.060396187765 0.080879707766 0.049092631758 0.070598070594 0.044431102248 0.061501773279 0.069409177862 
0.045446074911 0.049682652622 0.038665532594 0.041512038168 0.055017128911 0.038034997751 0.059014145056 0.031286929578 0.060013887248 
0.036230737871 0.033805296902 0.03052753546 0.064848177319 0.098948161123 0.033005987335 0.036315164668 0.048851242893 0.027484892869 
0.023003317886 0.042328710822 0.049548199624 0.035417858825 0.036955065575 0.030472042864 0.04675571132 0.035176404459 0.021822140725 
0.016927227722 0.038119513182 0.060771277697 0.043684068628 0.049576187905 0.040729083142 0.043499597667 0.039373076793 0.0497304522 
0.066550978065 0.025655625651 0.025795917914 0.035074165414 0.082509443865 0.04373615862 0.039746158615 0.056823819797 0.049866729088 
0.042665876081 0.091018886629 0.063921504434 0.059319921128 0.065013514674 0.097063677907 0.077107789658 0.12039252005 0.038812368484 
0.063242489685 0.10005795442 0.090145716054 0.075643977824 0.048164728282 0.061350279555 0.03932653997 0.088310683741 0.10252003066 
0.043690120168 0.047607171612 0.13839663993 0.089075939231 0.11240473454 0.086488556788 0.073952618178 0.061668276119 0.05687559206 
0.045666005236 0.03885559971 0.059436274286 0.069107580077 0.059751651933 0.041678958713 0.046383964329 0.065659317405 0.072071110037 
0.040984956325 0.04354500795 0.0632669395 0.036603906394 0.033878772189 0.036445527565 0.031151287507 0.032683328595 0.05323032909 
0.035487433439 0.026968966922 0.032152342087 0.027174095012 0.027736846922 0.045421031509 0.057174874259 0.028066312215 0.054523556631 
0.041450169836 0.055802200331 0.086757085598 0.028068811628 0.073719582736 0.057124661101 0.034654079245 0.037058125121 0.044437206571 
0.040630106926 0.041995570682 0.033967192387 0.026241880652 0.13206701247 0.053150683773 0.046586986256 0.046198727533 0.0420420957 
0.095584150081 0.0581785915 0.048239514883 0.035611189169 0.030617423057 0.064921635789 0.046613303352 0.054677191159 0.044613216683 
0.055414685454 0.069737797178 0.041491685266 0.065248845771 0.12068703267 0.058990062597 0.065996809656 0.076885178756 0.1253757572 
0.076819880308 0.069882771992 0.11879698909 0.044554046628 0.075978784448 0.05969027746 0.053751063534 0.061430530811 0.066419950118 
0.039375506758 0.055522051926 0.056848920199 0.10460736067 0.12523604397 0.073349684485 0.035105608195 0.032453168063 0.074383892843 
0.093012028596 0.068054293889 0.045107271142 0.045295161774 0.040568251878 0.044972769419 0.034078104015 0.046528093604 0.028776446164 
0.033654215477 0.064594574493 0.052122661156 0.039045204662 0.049661222384 0.050800107555 0.027641189328 0.027668443735 0.030387234396 
0.05420846565 0.031245536434 0.035264188187 0.030094326959 0.033846181019 0.058281820953 0.028412615664 0.026755823673 0.047054482912 
0.016931757508 0.051751789895 0.027637816284 0.024160361372 0.040843124393 0.039560798692 0.054702046986 0.073050619417 0.069754328218 
0.059727164798 0.056255920227 0.074665957665 0.030587505737 0.041645726848 0.043217903487 0.049874986868 0.01521194005 0.026524197393 
0.016050699229 0.037530882796 0.071361477597 0.05809865717 0.053729501138 0.071443610145 0.065556050371 0.056924971855 0.03149465318 
0.03525510703 0.03131892002 0.066755968613 0.091486218186 0.030574804106 0.051821427654 0.056314146574 0.045215131565 0.068125109113 
0.044902286938 0.07077905329 0.042520673187 0.025420788644 0.069455258526 0.064022693301 0.071817411446 0.15559192402 0.030348009372 
0.074969202344 0.048742920284 0.12289308822 0.049918269257 0.038185705463 0.046214958184 0.051319837919 0.087712545937 0.029897515276 
0.028611566413 0.12764615471 0.041019784329 0.054334987288 0.053890871047 0.020819870574 0.028499987963 0.065151169302 0.039182990464 
0.029645366422 0.03542655658 0.041230823039 0.062300709787 0.036871360099 0.03421799855 0.027734464427 0.079150511977 0.062948955752 
0.047830581411 0.047972482705 0.04142699152 0.066917266714 0.052553726937 0.038967358075 0.031399110167 0.02517526399 0.030050407441 
0.024799002252 0.045861062143 0.017892810644 0.044775802943 0.026401967195 0.11763478022 0.033847708532 0.023172119291 0.043920675404 
0.037681109213 0.029501508762 0.020537326575 0.067069992779 0.04342324734 0.042977183841 0.071918159471 0.026138265388 0.025564923141 
0.025001649103 0.028623885027 0.023426514951 0.022182617331 0.023324621938 0.012351266435 0.022256545704 0.022141179431 0.027775006111 
0.0066224549197 0.023713873999 0.0082614757749 0.022982446272 0.020799454014 0.01395644277 0.022486097122 0.033458437147 0.057239883968 
0.031866688386 0.043610447653 0.068412606615 0.039389665356 0.029735245784 0.045185967036 0.040725965218 0.070105026098 0.066416519855 
0.049575172614 0.03158662374 0.018587357414 0.029869005141 0.027606019845 0.021630216073 0.023649839094 0.058885444044 0.027630234026 
0.026905880807 0.029757961761 0.022806739131 0.021443383861 0.022745841015 0.028957364 0.020865458639 0.025855384712 0.031873198256 
0.063314892277 0.0439037216 0.031059625954 0.01993269531 0.023181525063 0.034178248089 0.057925305563 0.041555285777 0.028060840301 
0.054147932897 0.046973293329 0.030545404423 0.032074618117 0.027008192703 0.023377682048 0.02934790433 0.019846437952 0.026915452727 
0.026792143161 0.021876021214 0.020998863803 0.030028316352 0.025588869479 0.021665504419 0.03072066561 0.038028931886 0.03213832833 
0.036155560486 0.027280953247 0.057411274523 0.025764963688 0.035295856024 0.027775929107 0.028788752646 0.014916165563 0.025507520417 