# vtk DataFile Version 4.2
vtk output
ASCII
DATASET POLYDATA
POINTS 3713 float
-12.3669 19.3368 26.5015 -12.1976 18.3005 26.4501 -12.3541 18.3085 26.4655 
-11.9466 18.9679 26.4569 -11.9713 18.302 26.4458 -13.4938 18.5042 26.8372 
-12.9498 18.3187 26.6181 -13.1596 18.3067 26.7008 -12.9684 19.0866 26.6244 
-12.7483 18.307 26.5524 -12.546 18.3059 26.5002 -12.1798 19.4976 26.4886 
-11.7871 18.3105 26.4649 -14.1578 18.3067 27.1768 -13.9554 18.3105 27.064 
-14.1596 18.1991 27.1623 -13.7765 18.7374 26.959 -13.5727 18.309 26.8674 
-13.3596 18.2069 26.7623 -13.3643 19.0794 26.7767 -13.2217 19.1829 26.7225 
-12.7645 19.2115 26.5654 -12.5632 18.9898 26.5201 -12.4554 19.7083 26.5138 
-11.8661 19.4977 26.4836 -11.7489 18.9947 26.4662 -11.5635 18.8764 26.4858 
-11.5779 18.3099 26.5002 -11.1593 18.344 26.5982 -11.1596 18.1764 26.5623 
-11.2912 18.3088 26.5573 -14.391 18.3147 27.3208 -14.1503 18.5625 27.1617 
-13.9698 18.7914 27.0481 -12.9358 19.3824 26.6231 -12.1156 19.7078 26.4828 
-11.336 18.5774 26.5446 -10.9596 18.3067 26.6799 -10.9575 18.682 26.6719 
-10.831 18.3067 26.7623 -10.7821 18.6856 26.7692 -10.7596 18.3067 26.8185 
-14.5596 18.3067 27.4081 -14.5596 18.15 27.3623 -14.8249 18.314 27.5642 
-14.4398 18.497 27.3442 -13.8986 19.1252 27.0127 -13.5569 19.1717 26.8539 
-13.2727 19.8966 26.7286 -12.7613 19.6664 26.5703 -12.3617 19.9601 26.4709 
-11.6904 19.7178 26.475 -11.3446 19.004 26.5378 -11.1735 19.0348 26.5884 
-10.6088 18.3125 26.9626 -10.5596 18.1573 26.9623 -15.1596 18.3067 27.7969 
-14.9585 18.3091 27.6514 -15.1596 18.1811 27.7623 -14.7968 18.8974 27.5309 
-14.4145 18.6865 27.3082 -14.1856 18.8174 27.1639 -13.5625 19.8141 26.8479 
-12.8951 19.9086 26.5991 -12.5596 19.9067 26.5155 -12.1662 19.9534 26.4491 
-11.826 19.8862 26.4436 -11.3786 19.709 26.4976 -11.5596 19.3067 26.5037 
-10.9587 19.0431 26.6696 -10.5315 18.8371 26.9823 -10.5596 18.3067 27.0133 
-10.393 18.3001 27.205 -15.4878 18.3055 28.05 -15.5152 18.103 27.9876 
-15.7377 18.1021 28.1631 -15.2645 18.505 27.8672 -15.0507 18.7733 27.692 
-14.3882 18.9476 27.2729 -13.7712 19.5478 26.9419 -13.5186 20.1088 26.8036 
-12.8976 20.1044 26.5737 -12.5448 20.13 26.4672 -12.2447 20.4146 26.3344 
-11.562 20.2349 26.3551 -11.3586 19.9927 26.4358 -11.4233 19.5058 26.5209 
-11.2553 19.3081 26.5623 -10.7575 19.2216 26.7628 -10.7596 18.9067 26.7767 
-10.3865 18.6419 27.1548 -10.1943 18.5055 27.3955 -10.2541 18.3067 27.3623 
-15.7596 18.3067 28.2566 -15.9557 18.1045 28.3645 -15.1013 19.0698 27.7118 
-14.5588 19.0067 27.3713 -14.2991 19.352 27.2112 -13.9541 19.48 27.0208 
-13.934 19.918 27.013 -13.9054 20.1073 26.986 -11.8086 20.1881 26.3646 
-11.1564 19.9466 26.4789 -11.1756 19.5146 26.5655 -10.9596 19.3067 26.6554 
-10.5495 19.1039 26.9306 -10.3224 18.9037 27.1615 -10.1596 18.3067 27.4547 
-15.938 18.3195 28.4006 -16.1579 18.1059 28.5623 -15.6669 18.4838 28.1758 
-15.477 18.8716 27.9883 -14.8823 19.4584 27.5639 -13.8318 20.3221 26.9071 
-13.5211 20.3361 26.7568 -12.7762 20.4164 26.4503 -12.5564 20.6204 26.3313 
-11.9569 20.7512 26.1995 -11.5501 20.7764 26.2006 -11.3494 20.468 26.3131 
-10.9596 19.5067 26.6241 -10.7596 19.5067 26.7043 -10.3596 19.1067 27.0756 
-10.163 18.753 27.3625 -10.0563 18.5067 27.5623 -10.0602 18.3067 27.5623 
-16.1261 18.308 28.5634 -15.4563 19.1114 27.9548 -15.2995 19.555 27.8319 
-14.605 19.6878 27.3768 -14.2995 20.1051 27.1904 -14.2555 20.3195 27.1271 
-13.2723 20.3232 26.6597 -12.4507 20.8906 26.2186 -12.1888 20.8292 26.1991 
-11.7599 20.7445 26.1982 -11.0105 20.1817 26.4437 -10.9433 19.8131 26.5592 
-10.6115 19.4985 26.7852 -10.4052 19.2921 26.9895 -10.1929 19.0737 27.215 
-10.1595 18.957 27.2907 -9.97782 18.7472 27.571 -9.9596 18.3067 27.6632 
-16.4235 18.1076 28.7637 -16.1549 18.619 28.5593 -15.9376 18.8504 28.3682 
-15.65 18.8858 28.1228 -15.7628 19.2705 28.2079 -14.9678 19.7215 27.5973 
-14.2748 19.769 27.1936 -14.1918 20.5753 27.0111 -13.7351 20.5012 26.8005 
-13.5445 20.8913 26.57 -12.7396 21.0069 26.25 -11.9693 21.4256 26.0422 
-11.7709 21.1866 26.1011 -11.3635 20.8181 26.2142 -11.0173 20.5997 26.3371 
-10.7241 19.7101 26.6631 -9.8957 18.5066 27.7464 -16.3712 18.3066 28.7489 
-16.3892 18.5925 28.7358 -15.4691 19.4411 27.9585 -15.205 20.0896 27.7389 
-14.6769 20.0992 27.4027 -14.7193 20.3148 27.399 -14.5271 20.507 27.2269 
-13.0109 20.8633 26.3742 -12.5696 21.1623 26.18 -12.3557 21.6657 26.0277 
-12.1624 21.4692 26.0464 -11.541 21.5047 26.0567 -11.3661 21.2955 26.129 
-10.7695 20.372 26.4438 -10.7606 19.9916 26.5604 -10.3868 19.7545 26.8152 
-10.3555 19.5025 26.9499 -10.0256 19.2951 27.2443 -9.97575 19.1483 27.3731 
-9.80059 18.6777 27.8027 -9.87365 18.3067 27.7623 -16.6704 18.3194 28.9777 
-16.5596 18.1067 28.8603 -16.3092 18.9199 28.6514 -15.7441 19.5647 28.1717 
-15.5514 19.9023 27.9954 -14.9677 20.1617 27.5749 -14.7134 20.9982 27.1629 
-13.8523 20.8824 26.7204 -13.3771 21.1581 26.4257 -13.0715 21.0919 26.3362 
-12.766 21.6032 26.1367 -12.1596 21.7067 25.9869 -11.7596 21.5067 26.0293 
-11.1444 21.2044 26.1837 -11.0107 21.042 26.2394 -10.757 20.8943 26.3301 
-10.5596 19.9067 26.6692 -10.1838 19.5108 27.0349 -9.90962 18.9067 27.5623 
-9.74355 18.8842 27.7493 -9.75403 18.5063 27.9508 -9.7571 18.3071 27.9364 
-16.6951 18.1067 28.9623 -16.6165 18.8913 28.9129 -16.1015 19.27 28.476 
-16.0323 19.631 28.3948 -15.4825 20.1091 27.9254 -15.2708 20.296 27.7418 
-14.9257 20.5041 27.4767 -14.4295 21.0621 26.971 -14.1438 21.1096 26.8023 
-13.7397 21.152 26.5806 -12.9725 21.5021 26.2174 -12.5525 21.9025 26.0165 
-11.9596 21.7067 25.977 -11.7596 21.7067 25.9937 -11.5596 21.7067 26.0247 
-11.3596 21.5067 26.0839 -11.1596 21.5067 26.1329 -10.5587 20.7104 26.4304 
-10.5624 20.1819 26.5594 -10.2457 20.0933 26.7344 -9.96187 19.5096 27.1644 
-9.75844 19.3073 27.4346 -9.76433 19.1277 27.5637 -9.64993 18.5067 28.1623 
-9.65279 18.3067 28.1623 -16.7596 18.1067 29.0252 -16.7004 18.5473 28.9849 
-16.4174 19.339 28.7314 -15.8343 19.9265 28.2236 -15.6482 20.188 28.0352 
-14.9331 20.8163 27.3624 -14.9081 21.316 27.1902 -13.5019 21.5677 26.408 
-12.943 21.8641 26.1463 -12.7596 21.9067 26.0759 -12.3596 21.9067 25.9829 
-12.1596 21.9067 25.9753 -11.3596 21.7067 26.0691 -11.077 21.5067 26.1623 
-10.9596 21.3067 26.2162 -10.7596 21.1067 26.2931 -10.5637 20.9029 26.3835 
-10.023 19.9049 26.9136 -9.81943 19.8756 27.0361 -9.65389 19.6257 27.2925 
-9.67863 18.6945 27.959 -9.59512 18.3067 28.3623 -9.55925 18.1934 28.3641 
-18.1323 18.106 30.3631 -17.9636 18.1067 30.1574 -18.1596 18.0123 30.3623 
-17.7423 18.3149 29.9346 -17.6902 18.1051 29.8836 -17.2109 18.3094 29.4453 
-17.3492 18.0906 29.5615 -16.8986 18.1067 29.1623 -16.93 18.3057 29.2001 
-16.704 19.4481 28.9534 -16.0199 20.0804 28.3318 -15.1551 20.6377 27.5754 
-15.1564 21.1565 27.3847 -14.4615 21.3131 26.9232 -14.0257 21.3165 26.6856 
-13.9486 21.6112 26.5923 -13.1615 21.5142 26.2825 -13.1598 21.8843 26.2227 
-12.5596 22.1067 26.0446 -12.3596 22.1067 26.0526 -11.9596 21.9067 25.9935 
-11.7596 21.9067 26.0399 -11.3596 21.8444 26.1623 -11.1594 21.7072 26.1621 
-10.3596 20.9067 26.4976 -10.3198 20.3879 26.5964 -9.96114 20.3276 26.7656 
-9.63926 19.8633 27.152 -9.4075 19.6799 27.4277 -9.57138 19.3131 27.5762 
-9.52008 19.1022 27.8306 -9.43599 18.9067 28.1623 -9.56622 18.5085 28.4096 
-9.55959 18.2254 28.5623 -18.2603 18.1067 30.5623 -17.9607 18.3264 30.1537 
-17.1387 18.1057 29.3774 -16.9572 18.5827 29.183 -16.2768 19.7627 28.5741 
-15.5306 20.5191 27.8606 -15.3173 21.0326 27.5311 -15.2657 21.4712 27.3814 
-14.7082 21.6289 27.0042 -13.8767 21.9764 26.5259 -13.5835 22.111 26.3597 
-13.0457 22.1088 26.1496 -12.7596 22.1067 26.0695 -11.9596 22.0562 26.1623 
-11.5194 21.908 26.1561 -10.9596 21.5067 26.2362 -10.7244 21.309 26.3542 
-10.5747 21.1021 26.3669 -10.3596 20.7067 26.5093 -10.1596 20.5067 26.6193 
-9.94094 20.5092 26.7146 -9.75369 20.2872 26.8906 -9.37563 20.1066 27.199 
-9.17996 19.9005 27.4469 -9.49711 18.657 28.3665 -9.56036 18.3067 28.6298 
-18.1357 18.3188 30.369 -17.7533 18.6041 29.9182 -17.1587 18.5335 29.3625 
-16.9596 18.1067 29.2202 -17.1306 19.2846 29.3018 -16.7532 19.8236 28.9529 
-16.3763 20.2475 28.5661 -15.9055 20.3051 28.1892 -15.7368 20.6075 27.9658 
-15.5225 20.741 27.7795 -15.0768 21.6256 27.2303 -14.3316 21.5029 26.8154 
-14.2256 21.799 26.7249 -13.3596 22.1067 26.2519 -12.5596 22.2395 26.1623 
-12.3596 22.1855 26.1623 -12.1251 22.1056 26.1567 -11.7596 21.9933 26.1623 
-11.3376 21.818 26.364 -11.1292 21.7125 26.3655 -10.4292 21.1045 26.5644 
-10.1595 20.7067 26.5865 -9.18269 19.7196 27.5689 -9.39641 19.5059 27.5753 
-9.36675 19.3212 27.7732 -9.35684 18.9292 28.2742 -9.49299 18.4913 28.7352 
-9.50716 18.3045 28.8053 -9.37024 18.5106 29.0271 -9.3596 18.307 29.1083 
-9.24143 18.3067 29.3623 -9.28086 18.1067 29.1623 -18.3022 18.3278 30.6119 
-18.3575 18.1065 30.7394 -18.1521 18.6052 30.362 -17.9868 18.7098 30.1484 
-17.1632 18.9784 29.3464 -16.9848 19.5721 29.1604 -16.1226 20.3159 28.3607 
-15.5693 21.2862 27.6283 -15.3802 21.8005 27.3864 -14.981 22.0574 27.118 
-14.3898 21.7186 26.8174 -14.1619 22.3092 26.6282 -13.7596 22.1067 26.4504 
-13.1596 22.3067 26.258 -12.9596 22.2411 26.1623 -12.7363 22.2811 26.1747 
-12.1146 22.1102 26.3631 -11.946 22.0344 26.362 -11.563 21.9046 26.3601 
-10.9477 21.5233 26.3645 -10.7596 21.3354 26.3623 -10.2845 20.9067 26.5623 
-9.9596 20.7067 26.7119 -9.7596 20.5067 26.834 -9.56183 20.3064 26.998 
-9.15969 20.1067 27.3633 -8.98146 19.9133 27.6105 -9.20129 19.5239 27.7347 
-9.3596 18.7584 28.5623 -9.17395 18.1032 29.4007 -18.4781 18.1067 30.9623 
-18.3114 18.6628 30.5668 -17.9846 19.0236 30.1047 -17.3581 18.8142 29.5323 
-17.4302 19.1959 29.5733 -17.219 19.5024 29.3483 -17.1102 19.8649 29.2036 
-16.8372 20.1024 28.9594 -16.5065 20.5581 28.5753 -16.0397 20.6034 28.2011 
-15.9648 20.9121 28.012 -15.6112 21.8596 27.5247 -15.5222 22.1014 27.4298 
-15.1405 22.3076 27.1645 -14.7412 22.3026 26.9471 -14.4951 22.3043 26.819 
-14.05 22.3067 26.5623 -13.9596 22.3067 26.5132 -13.7596 22.3067 26.4341 
-13.5349 22.3043 26.3598 -13.3596 22.3067 26.2957 -12.5974 22.3048 26.3612 
[...]
CELL_DATA 7285
FIELD FieldData 1
Area 1 7285 double
0.080829059537 0.075345784274 0.024443920877 0.081246802446 0.1003139829 0.11117820051 0.14462286585 0.061579342703 0.01257195203 
0.092026732404 0.022827860873 0.043585430075 0.18191588621 0.10336527462 0.097174386207 0.071462875074 0.070804018166 0.042019604003 
0.083214335965 0.067215242972 0.060131932101 0.011644947152 0.014831985299 0.02963072928 0.051070936393 0.039898513793 0.10517417491 
0.080992278274 0.041694967881 0.029428746604 0.091261131591 0.052096608038 0.035867535043 0.032970496554 0.051403338868 0.066014927191 
0.068189912315 0.039233305469 0.019371625126 0.01870408853 0.028666628695 0.017254630994 0.024802695624 0.01545939226 0.024780862077 
0.043336372221 0.051802305427 0.037674995985 0.056287507822 0.05704088901 0.1130357167 0.041241936951 0.047161562734 0.10955567167 
0.043372045621 0.045934659283 0.04021362776 0.048633059482 0.061855939055 0.040480355412 0.037962502425 0.039721268796 0.016675077314 
0.015992116971 0.04643423572 0.029793359321 0.01752521091 0.031235439819 0.030846622351 0.041905963937 0.076175256238 0.066488489623 
0.12378124898 0.10477517393 0.041482516627 0.033136540728 0.022964067193 0.024295956673 0.037189651647 0.035325946742 0.066656485074 
0.047950157174 0.03822541294 0.077015645915 0.036218360131 0.081116862977 0.0055256134644 0.00069906977548 0.030188643202 0.024769442201 
0.076014144742 0.12569670301 0.046339230179 0.03661520351 0.056515271282 0.076279997389 0.07389726973 0.04397330797 0.039345263155 
0.041752190147 0.022460236576 0.046723077553 0.040543214112 0.047021884742 0.045494707143 0.045362943097 0.043698729322 0.047067249863 
0.025708307759 0.04146554593 0.057710530416 0.034740015843 0.065796341383 0.055587023855 0.020780920915 0.031305475233 0.036419335643 
0.041215150754 0.077354741696 0.047917532031 0.054514321586 0.03273017027 0.10262325819 0.037205348031 0.066008561284 0.063135794291 
0.069867049993 0.034120265646 0.041522500923 0.054168637783 0.09492752206 0.05375461725 0.038071705397 0.070583026528 0.030271655609 
0.025686720752 0.030789072541 0.042300471304 0.030336953395 0.029889928962 0.0042958100024 0.039505730641 0.034675705173 0.050613071209 
0.013196391637 0.030877962071 0.024995832561 0.030337034482 0.047584657344 0.083381350166 0.074441624271 0.091603152853 0.085329107161 
0.026958397412 0.043008697553 0.073397384334 0.042881695107 0.04049117812 0.046647055863 0.076748735741 0.057641572078 0.079248442513 
0.11169054403 0.069163570122 0.051278703424 0.050441645584 0.047102163393 0.025679227123 0.031333789198 0.031982762842 0.041698322899 
0.03213954215 0.03129948948 0.037614282725 0.038453433476 0.021590712235 0.014649165243 0.025150144932 0.021087837663 0.095879980477 
0.052448612345 0.10911970299 0.11875706371 0.11126816121 0.084929649499 0.04204448182 0.051870808865 0.039807238323 0.027805253327 
0.078693135234 0.059285025535 0.056950693844 0.052906021161 0.057356658079 0.060266812108 0.058842880152 0.063491960368 0.049723695503 
0.023504225478 0.021776234467 0.024297228378 0.034566433157 0.022801545957 0.021181235443 0.023183744317 0.035072694608 0.026664347821 
0.01425125135 0.033871129245 0.038892017911 0.091894166893 0.044507932416 0.050703467634 0.099589313632 0.061046176412 0.054433743811 
0.077531826766 0.078227942426 0.066398991623 0.048185169888 0.063411685228 0.031386389622 0.021249668902 0.17095682892 0.065976087118 
0.048673251673 0.059169293522 0.080045917671 0.044565140084 0.047695123504 0.03449175969 0.07302990064 0.03677279005 0.035098844062 
0.022604381645 0.017777011587 0.05475160742 0.019080799497 0.014682384443 0.029138666568 0.030096066264 0.024433462594 0.030703107784 
0.045988295611 0.074446592519 0.075363510835 0.041149568468 0.064552910791 0.035585626977 0.097794560116 0.086146288512 0.080770495779 
0.072897558635 0.058124921729 0.048723166283 0.051965079786 0.12408951619 0.13162614312 0.084368020041 0.033810144277 0.10802966608 
0.064225480657 0.067186209284 0.084141220844 0.045571158636 0.062187183806 0.053581164627 0.042364129782 0.037499388634 0.044240632539 
0.033267274648 0.052791446673 0.019240010075 0.05415565659 0.029189526045 0.013109210923 0.018006797454 0.037985420657 0.044063638785 
0.046587025531 0.064260567707 0.075235342835 0.053569927971 0.053870792514 0.10301076859 0.063079720177 0.074816315387 0.0470645867 
0.052896929049 0.10676318266 0.098143364111 0.068933424006 0.081762160891 0.038218032451 0.055124501894 0.061406141951 0.06680963633 
0.023754725319 0.033947929716 0.036151355795 0.066892709386 0.054387756829 0.08091672339 0.069373797376 0.05000447452 0.031850988799 
0.034968084892 0.041251091186 0.020788509556 0.053412258338 0.026211029221 0.020608249607 0.032040183118 0.022053380558 0.020967727768 
0.01818205328 0.05394088185 0.064443954715 0.091273142071 0.090748769982 0.054932186477 0.074933807838 0.035652757048 0.032202332728 
0.035597055545 0.046005325091 0.12118850167 0.093599694835 0.099160292019 0.047301453284 0.053599817812 0.035873436398 0.077352958431 
0.066743030679 0.08072917771 0.078061901931 0.024213493454 0.028882196849 0.021303782915 0.022459053029 0.019826929323 0.033757186236 
0.045140254993 0.059398211739 0.056494299672 0.041682656344 0.03008878719 0.047390112096 0.026563106143 0.030478466779 0.027736721095 
0.03534444267 0.021597548133 0.01544451194 0.024792677193 0.024878671272 0.0096600879674 0.046126140389 0.066057811804 0.086482108159 
0.080492732862 0.078084712391 0.062560906124 0.064586150467 0.024437395672 0.034442316526 0.0472189206 0.065003798541 0.042783048461 
0.061973554612 0.089017701498 0.060722974583 0.08209871756 0.070971177409 0.03802471547 0.033308989665 0.023988098904 0.024461179801 
0.020057811924 0.02897400895 0.020550077095 0.020878950526 0.018398143792 0.022246878 0.013381613736 0.022724736582 0.028001406173 
0.019881074028 0.05958885257 0.031351914984 0.050508864901 0.059898257378 0.072532011438 0.052577452127 0.038310446878 0.059688098433 
0.028528657372 0.031753896338 0.025591940398 0.023480876311 0.020816414784 0.0123163311 0.012792480023 0.04052968853 0.052704839988 
0.020949695559 0.039221792494 0.046986276924 0.09589313501 0.077066448058 0.051901760163 0.050997680958 0.029795221045 0.056236472527 
0.044265110351 0.07082373999 0.066045606194 0.066978334087 0.042803556168 0.045537783544 0.10795257914 0.0721696988 0.037670372694 
0.042632719697 0.029731018218 0.022138170793 0.02072220827 0.02004868527 0.0201502417 0.020137793118 0.020761132945 0.016896069184 
0.020643911005 0.0088695866721 0.025404220637 0.032822183644 0.021641194323 0.02301246332 0.069588996023 0.050059992928 0.062080525904 
0.052879355202 0.044210081768 0.048310667139 0.050721589227 0.024679374946 0.046609734586 0.054521119686 0.023420501899 0.026349165474 
0.011822945777 0.011444595946 0.029222452732 0.034011712692 0.07557901102 0.029236409838 0.03437091588 0.044995744302 0.14644933443 
0.088427546789 0.078170114395 0.071609763404 0.048610709302 0.070214614516 0.07078634124 0.073114958699 0.05099552052 0.057680191104 
0.083126528181 0.052338804689 0.054517382936 0.090598606194 0.097896011365 0.037547261403 0.027375759912 0.026333238989 0.020163629302 
0.020638150966 0.021190965721 0.02258168226 0.021047117058 0.029981516805 0.020792150072 0.017810813428 0.022313787602 0.014239959207 
0.013927177677 0.027926667951 0.019814585982 0.023336867175 0.021442483412 0.034744563743 0.031968024138 0.026194335922 0.054324117335 
0.052190364323 0.029704661809 0.074502719372 0.028607237775 0.049906424431 0.042867306229 0.063547497226 0.052845662535 0.021988323126 
0.027396957365 0.011045418457 0.025191808834 0.029545485249 0.044852826211 0.081702737419 0.037795491232 0.023697790659 0.0083726652955 
0.051935234454 0.21049655375 0.11347416812 0.097849724664 0.044914646014 0.048145321413 0.051126768613 0.080886189803 0.040234320066 
0.050676215707 0.068212593848 0.051029644805 0.04749710202 0.059914016096 0.06505620753 0.09588527549 0.085831311215 0.037354602451 
0.029728174347 0.017811503068 0.013509109243 0.032152760886 0.023402560397 0.023157760168 0.015119444745 0.018663967695 0.017316922655 
0.024824675089 0.028382881938 0.027364224212 0.020731010859 0.026935409516 0.021479843959 0.034929886778 0.016772816235 0.052003820969 
0.022803544822 0.10468218222 0.067899183688 0.028900596435 0.025145188508 0.03728305897 0.019012824429 0.048531582748 0.027696202545 
0.032598678795 0.017332255589 0.034680717815 0.028851938732 0.022377539714 0.03228474924 0.039821307512 0.06219604326 0.11804636724 
0.028165022073 0.050914797588 0.062830610977 0.063281848737 0.14680870941 0.042389355299 0.032552489344 0.062857355579 0.028902939651 
0.080489562761 0.075560563302 0.047962058314 0.093653021653 0.042451990857 0.058471282521 0.094020836081 0.012683070921 0.028237325464 
0.034674265493 0.020425859452 0.018512320848 0.018016431855 0.016374806446 0.017809661277 0.021012784409 0.025970641198 0.024809557852 
0.02359595003 0.017007629146 0.003844775194 0.02903229161 0.010888860921 0.010386491991 0.02382706131 0.023581659533 0.024270548068 
0.026199823066 0.029950934893 0.026762933011 0.034036491976 0.026553192237 0.031977602503 0.066086778867 0.021950973425 0.044456872393 
0.030802435861 0.028712693002 0.027153187311 0.028093557814 0.049717217966 0.03709708022 0.052501080516 0.053413577745 0.10509987944 
0.059893716221 0.059536513136 0.036241855905 0.061752764296 0.090745166334 0.055757170258 0.041919028561 0.059112106533 0.059531765431 
0.14463576957 0.11155495155 0.042033684494 0.038874656345 0.052725964268 0.09920882299 0.11264207509 0.022587282229 0.044289679618 
0.021567426924 0.027616073711 0.019844694515 0.024249832077 0.020817708385 0.017941716278 0.022287673285 0.018428056278 0.021002690324 
0.025604148447 0.018519223621 0.040431280678 0.039082244597 0.037373883694 0.038890731905 0.017252718928 0.0035562151602 0.016406305414 
0.032854054476 0.024206387793 0.0067605629069 0.021673317259 0.022448732033 0.022246355789 0.02656562954 0.027185897233 0.031031701145 
0.025622826666 0.032622362799 0.034944368494 0.029897330907 0.053381044046 0.038977880857 0.047411480611 0.013287916271 0.058860606876 
0.040084890261 0.020148408906 0.048312179595 0.042184665108 0.06822496145 0.068141248924 0.04443828871 0.057850460194 0.053492057737 
0.059324909058 0.058097761955 0.048599869471 0.048795293582 0.060071175457 0.037721347299 0.057480891849 0.085104220248 0.062081708961 
0.15116664017 0.064707194194 0.036579921974 0.1616683395 0.026108997387 0.031298546881 0.093896672284 0.11309553897 0.0096460409018 
0.017185106909 0.021569414596 0.02300205225 0.019069963883 0.012123916639 0.0097505693174 0.010900737973 0.01623440809 0.025882561924 
0.027194193621 0.026584615921 0.017941749894 0.035412864003 0.063720833099 0.041364402671 0.021079281738 0.019675566152 0.015049713043 
0.024366253688 0.014889050878 0.0021492812723 0.023352061649 0.017630747702 0.025759734189 0.028620567895 0.023122527698 0.029382994571 
0.023518862592 0.030392746614 0.041196491008 0.030555480516 0.098258043555 0.032845832936 0.043692706058 0.013766131785 0.058993826554 
0.040292443361 0.018864805045 0.023963096053 0.021697858222 0.10003037369 0.048128918023 0.071028464336 0.026524248179 0.074579208521 
0.083616860743 0.080371574044 0.086651943824 0.054256947173 0.045959512197 0.06643676667 0.073059567146 0.06916014975 0.070294504784 
0.032007950649 0.071866243515 0.033276272421 0.027013498811 0.022259164724 0.017519682879 0.019708665609 0.038220572845 0.028520265266 
0.0075196989267 0.015807834899 0.023158634619 0.007575470774 0.0084218500356 0.012070588729 0.014069494895 0.021283510321 0.016923486775 
0.02675436529 0.030443148928 0.043759160238 0.020367594828 0.027096141089 0.025529837393 0.010086312875 0.035182339992 0.016765737513 
0.016424857876 0.034323170633 0.02151339684 0.02112300387 0.023333199538 0.02467811494 0.0075564452971 0.021719189955 0.026126658943 
0.030519425126 0.015599763633 0.025059991427 0.027295366788 0.027845419301 0.030220281804 0.035804097573 0.046961362262 0.031403004969 
0.083059586848 0.055848501133 0.12462536049 0.038489789666 0.057741411468 0.036011374357 0.030336821922 0.027945163913 0.030470199239 
0.052732186389 0.062815829489 0.040087674224 0.036461036942 0.029517684446 0.068866184838 0.11669623179 0.13085666377 0.052386318367 
0.054967946443 0.061620009333 0.11208557404 0.081388202919 0.079578012838 0.067597993731 0.058431855825 0.11247735986 0.034200159228 
0.026923184607 0.0094508025588 0.027824068302 0.019539025176 0.030288598221 0.013101930243 0.021984799001 0.019003004145 0.02385536921 
0.0138825876 0.020028424784 0.027236778116 0.02026860471 0.020014342778 0.014123304863 0.02221360848 0.022107182135 0.025649526743 
0.037338536912 0.019102806619 0.027011195122 0.020298885074 0.023329071562 0.016549744576 0.041155332229 0.010157475946 0.016620337075 
0.022514504534 0.015986249881 0.017047544462 0.020647386148 0.022120040698 0.019497868189 0.021744586287 0.0084258288137 0.026227637217 
0.026799261347 0.014907849483 0.024428729506 0.026164199299 0.022144404158 0.01703137113 0.034364094822 0.063832397171 0.036224652796 
0.042667596447 0.075581338831 0.018441606717 0.047455525845 0.051970120627 0.014755430681 0.046484626641 0.046817845838 0.017538702786 
0.019797869922 0.031229696353 0.068194482826 0.076082078147 0.031853409499 0.02970047749 0.046112727675 0.043892131727 0.048769262059 
0.056957523004 0.050753551248 0.062746645894 0.05816390147 0.048283343731 0.076103616298 0.07339403236 0.093818154081 0.12411486873 
0.042335371431 0.047700370535 0.069561950227 0.027162019074 0.022407495137 0.015010131433 0.0072579427193 0.01837101699 0.019730352268 
0.012313752784 0.043634921139 0.030338852915 0.026320350584 0.0056679870841 0.024764654159 0.014357086895 0.028301123311 0.024898055691 
0.033015804079 0.029649181763 0.03146165726 0.022789479069 0.029861483983 0.023632057606 0.03484976271 0.033074006073 0.060341391016 
0.027727868054 0.021756414639 0.034506103367 0.044845041492 0.051869721465 0.027293773356 0.044493613671 0.095607902239 0.037981731778 
0.03978955583 0.050775134479 0.028627030158 0.064198494049 0.020423184526 0.03989710194 0.038626234056 0.010480561015 0.020020767782 
0.042535624619 0.026388107301 0.03502588204 0.032512729598 0.048891399545 0.085151820029 0.1255417194 0.054201142588 0.03083135452 
0.06471595967 0.022087822959 0.021984224291 0.022840206335 0.024913107905 0.071839915545 0.07686541872 0.079044575713 0.15055208116 
0.12080773416 0.024226816536 0.014348752776 0.037545573059 0.064989211109 0.023421213068 0.025795812626 0.020668191314 0.024206077817 
0.020284109204 0.026277411701 0.0774108041 0.042871626774 0.06863753881 0.044062990892 0.038955359334 0.065948137029 0.059143071237 
0.057202972973 0.06558739133 0.046131615469 0.02123322024 0.041606661712 0.043007894361 0.030464661663 0.015558978264 0.014241852207 
0.031810763745 0.035695309064 0.023621133235 0.021383176079 0.022469791256 0.01883203947 0.026981701581 0.031703097003 0.01542710486 
0.015202149399 0.022340675243 0.019634566752 0.029145105811 0.020036783536 0.034202900335 0.071037650991 0.050684099488 0.035405727512 
0.04990700021 0.048104146131 0.042896043817 0.084708330248 0.070569579736 0.083210917014 0.090153718707 0.03992630897 0.051302158453 
0.061041048274 0.070060406195 0.039975370486 0.032098921757 0.062386955603 0.021763927992 0.025063672736 0.023089412307 0.020860880244 
0.021059507534 0.022366814343 0.041150761941 0.052990776565 0.029136423133 0.044352684448 0.02381751702 0.036501338297 0.050292812298 
0.062499458517 0.048382115204 0.030133772048 0.017779383349 0.033963124427 0.027921868385 0.04481136642 0.03986323491 0.092391611479 
0.050933966938 0.073949909944 0.12953470331 0.047873821457 0.040059308942 0.027707400435 0.061875300424 0.036795344523 0.023665055552 
0.091330745449 0.066068094147 0.035915390005 0.020228298018 0.03792200803 0.031688854033 0.014503559571 0.018450038751 0.02771959762 
0.05739444464 0.078195123004 0.040661649706 0.033581276082 0.033317789063 0.023889718968 0.022828451983 0.013600083932 0.069199114632 
0.063605061733 0.05605287276 0.082090371493 0.039538371171 0.070912889937 0.029188328004 0.020338107264 0.036163160576 0.060380382852 
0.044702566231 0.05263861696 0.040311456635 0.03925548943 0.044032045003 0.053895134543 0.085215634388 0.055664021752 0.061595781457 
0.030450543901 0.0092921153662 0.0079508872906 0.011647988349 0.02459011717 0.022524163397 0.022556910545 0.027853199791 0.022146854434 
0.021059335415 0.022176038887 0.019608932077 0.019091122249 0.018700692414 0.020919676351 0.02062261372 0.034056060579 0.027734688793 
0.02272406627 0.020297310052 0.020563203701 0.0287866106 0.040052425035 0.031908113075 0.064845030456 0.046265840202 0.055007683077 
0.098996257336 0.039112488014 0.031205424378 0.020147620404 0.020201010411 0.022173829042 0.024788186153 0.026927103045 0.0087615991257 
0.011487120929 0.02391955975 0.010829290376 0.016158156296 0.053303713228 0.048833800981 0.068102120901 0.04555804138 0.10346903573 
0.034627571328 0.048059044687 0.020340800377 0.028230334587 0.027505348971 0.032481088299 0.081325787381 0.052112346439 0.037100599956 
0.030232779222 0.056439354261 0.033665885498 0.04652565232 0.021017655943 0.01489830443 0.052558471736 0.061374984662 0.08381747176 
0.023874661913 0.039147445229 0.02306778052 0.059942632282 0.10585653046 0.058435747929 0.037874585549 0.088744828835 0.082207819552 
0.17391473871 0.06869661612 0.035581466045 0.033714892141 0.020021431525 0.020035046237 0.020512551489 0.020453961719 0.013450677401 
0.022369833424 0.02123177432 0.038045883438 0.0085703295674 0.0069107785672 0.033902774129 0.095423093092 0.033114626925 0.072438186882 
0.082483058523 0.060886940313 0.02929785213 0.025050870567 0.051094804993 0.064669134465 0.069537210199 0.065285311783 0.035563786944 
0.03977074904 0.033208937378 0.027955014158 0.029926062792 0.022072114345 0.012251653857 0.019518848516 0.047034219882 0.055631518803 
0.073142096175 0.039176311743 0.03730488301 0.13987828678 0.066008820974 0.083194652697 0.027084026959 0.066460054306 0.046241280104 
0.044548499383 0.025783803298 0.020011140689 0.018776353344 0.015657382327 0.023839110838 0.022368846 0.030053837122 0.022000022164 
0.021421931564 0.0054027431139 0.018682471978 0.037481268737 0.068374606153 0.048767927996 0.041678340192 0.072220740378 0.067106968556 
0.057065478221 0.07184873969 0.067851111624 0.083202367588 0.039994462524 0.033971174894 0.058270000077 0.029065882844 0.026427100317 
0.023706883573 0.021500289852 0.014237429922 0.022678457331 0.029237729528 0.040199111452 0.082017219601 0.069881959139 0.068316746126 
0.034741429847 0.075218455257 0.055741108051 0.030348491071 0.02832889328 0.071010552786 0.031729005095 0.014818807644 0.016811348202 
0.016271745002 0.019448266614 0.020451784222 0.01121405267 0.0067110403169 0.013228465311 0.060974820664 0.084160146669 0.05240388392 
0.042073656571 0.0428428545 0.10422937578 0.11861111667 0.082536348193 0.067284060316 0.052257515838 0.030069025573 0.021611822797 
0.0086537200243 0.0088830550527 0.035639382929 0.028391660884 0.024618600301 0.034305512145 0.055177653839 0.07612106205 0.01811377677 
0.042017279637 0.040731625867 0.019060214139 0.038383299221 0.022005090319 0.023588029783 0.034796005588 0.018611893355 0.10910873282 
0.073989091945 0.065773868127 0.042417481358 0.085890145913 0.060171770352 0.049459812759 0.047651524273 0.035832657012 0.035151429383 
0.009648163755 0.035873701779 0.032458223784 0.027334895593 0.02144819464 0.026546510477 0.038620377148 0.018815060331 0.025613754754 
0.021601196547 0.027225044513 0.031722511082 0.021207915159 0.022850159675 0.058460140035 0.05154444518 0.070456271458 0.048130354799 
0.050650469325 0.025778983888 0.026439819955 0.020986609883 0.020177817997 0.026771973996 0.020061166616 0.021977283078 0.012901547337 
0.020930172479 0.031683892274 0.033946887421 0.037626561633 0.053488199378 0.024948155291 0.019110194497 0.020451969266 0.022460794296 