# vtk DataFile Version 4.2
vtk output
ASCII
DATASET POLYDATA
POINTS 3978 float
-18.1183 18.2138 30.4093 -17.9788 18.1313 30.2093 -18.1197 18.1311 30.3709 
-18.0409 18.3203 30.3208 -17.9183 18.1313 30.1382 -17.7419 18.3459 29.9837 
-17.7961 18.1313 30.0093 -17.7183 18.1313 29.9318 -17.3859 18.3304 29.6483 
-17.3491 18.1406 29.5851 -17.5183 18.1313 29.7434 -17.1849 18.1313 29.4093 
-14.3082 18.1321 27.2388 -14.3183 18.0463 27.2093 -14.5518 18.136 27.3926 
-18.3088 18.1298 30.6271 -17.5897 18.1313 29.8093 -17.122 18.3357 29.3982 
-17.1183 18.1313 29.3563 -16.7191 18.1337 29.0307 -14.6082 18.3309 27.4382 
-14.7183 18.1313 27.5098 -14.1183 18.1313 27.1412 -13.7183 18.1313 26.9496 
-13.4056 18.1283 26.8105 -13.5183 18.0011 26.8093 -13.5015 18.3544 26.8499 
-13.1183 18.1313 26.6975 -12.7197 18.1339 26.5568 -12.9183 18.0448 26.6093 
-12.3179 18.1318 26.4672 -12.2551 17.9677 26.4085 -12.5164 18.1333 26.4984 
-18.2624 18.3304 30.6081 -18.4117 18.1313 30.8093 -17.8805 18.5907 30.1161 
-17.3539 18.6655 29.5983 -16.7056 18.3302 29.0398 -16.3652 18.3333 28.7736 
-16.5183 18.1313 28.8713 -16.4431 18.1313 28.8093 -14.9087 18.1332 27.6253 
-14.9183 18.0829 27.6093 -14.909 18.3367 27.6416 -14.2835 18.3298 27.2342 
-13.9215 18.1324 27.0379 -13.9183 18.0426 27.0093 -13.1321 18.4454 26.6911 
-12.7159 18.4534 26.555 -12.3183 18.7313 26.4717 -12.1172 18.1348 26.4573 
-11.9302 18.1295 26.4617 -18.5017 18.3312 31.0353 -18.1302 18.852 30.3608 
-17.6772 18.7636 29.9034 -17.0144 18.5898 29.2936 -16.3183 18.1313 28.6967 
-16.2336 18.1313 28.6093 -16.1792 18.3334 28.601 -16.1183 18.1313 28.5009 
-16.0084 18.1313 28.4093 -15.1183 18.1313 27.7413 -14.6505 18.5393 27.4417 
-13.9108 18.3323 27.0362 -13.4885 18.5581 26.8334 -12.5287 18.9492 26.5087 
-11.9266 18.929 26.4653 -11.7491 18.1311 26.4766 -11.4547 18.1362 26.5315 
-11.3921 17.9299 26.4945 -18.641 18.3313 31.4093 -18.6335 18.1313 31.2093 
-18.6941 18.1313 31.4093 -18.4484 18.7106 30.8358 -18.3235 18.9113 30.6142 
-18.1068 19.1535 30.2993 -17.8787 19.2945 30.0412 -17.4783 19.0758 29.6796 
-17.2876 19.4045 29.477 -16.7115 18.7935 29.0028 -16.4051 18.5489 28.7806 
-15.9374 18.3334 28.3954 -15.9183 18.1313 28.3394 -15.7183 18.2189 28.2093 
-15.7726 18.1316 28.2101 -15.2748 18.3335 27.8905 -15.2295 18.1313 27.8093 
-14.9245 18.6806 27.6148 -14.3154 18.5994 27.2291 -13.9102 18.5999 27.0203 
-13.133 18.861 26.688 -12.715 19.004 26.5467 -12.3317 19.1847 26.4881 
-12.1223 18.8312 26.4608 -11.7127 19.0857 26.4809 -11.5127 18.6621 26.505 
-11.2576 18.1373 26.5899 -11.0885 17.933 26.6128 -18.517 18.6221 30.992 
-18.3383 19.2156 30.5653 -16.9817 19.0418 29.2258 -16.5276 18.8307 28.8529 
-16.0018 18.7446 28.4072 -15.5196 18.1349 28.0074 -15.3183 18.1313 27.8577 
-15.215 18.56 27.8352 -14.6971 18.9351 27.4497 -13.5272 19.377 26.8263 
-12.91 19.0649 26.5988 -12.7039 19.628 26.5532 -12.467 19.5413 26.5118 
-12.1208 19.4921 26.4832 -11.8362 19.3416 26.4828 -11.2822 19.1322 26.5542 
-11.1193 18.4314 26.6192 -11.1183 18.1313 26.6401 -18.6456 18.5343 31.3539 
-18.5889 19.1026 30.9832 -18.2928 19.5216 30.4294 -17.9288 19.6469 30.0178 
-17.5405 19.4686 29.6889 -16.914 19.2917 29.1538 -16.271 18.9805 28.6487 
-16.1276 18.5702 28.538 -15.5223 18.5694 28.0492 -15.4836 18.3351 28.0386 
-15.2335 18.9102 27.8101 -14.2749 18.8948 27.1951 -13.8818 19.089 26.9904 
-13.1256 19.2829 26.6627 -11.5162 19.1291 26.5055 -10.9183 17.9313 26.7105 
-18.7387 18.3458 32.0207 -18.7706 18.1314 31.8651 -18.7586 18.1309 32.2449 
-18.7138 18.3281 31.7012 -18.6398 18.8078 31.2113 -18.525 19.3052 30.8087 
-18.4907 19.5333 30.6745 -18.1097 19.6664 30.1926 -17.3077 19.7106 29.4482 
-16.9915 19.7669 29.1772 -16.4856 19.2515 28.8117 -16.0719 19.2637 28.4617 
-15.7744 18.8103 28.2121 -14.9297 19.2456 27.604 -14.3887 19.2651 27.265 
-13.723 19.8778 26.9087 -13.4904 19.944 26.8018 -13.0516 19.693 26.6353 
-12.4473 19.7377 26.4936 -11.9183 19.5313 26.4752 -11.4399 19.3308 26.5137 
-11.1037 19.1287 26.6093 -10.913 18.4982 26.7224 -10.8868 18.1332 26.7824 
-18.737 18.3328 32.5762 -18.7573 18.1313 32.8019 -18.7435 18.3298 32.1816 
-18.7469 18.5471 31.8022 -18.7156 18.5854 31.6025 -18.7523 19.0764 31.4227 
-18.7118 19.187 31.2104 -18.6886 19.3156 31.0741 -18.3214 19.7035 30.4029 
-17.9411 19.8844 29.9432 -17.6412 19.7526 29.7244 -16.6227 19.6491 28.9007 
-16.3124 19.401 28.6514 -15.7912 19.152 28.2104 -15.5045 19.0329 28.0036 
-15.2919 19.2647 27.8407 -14.6709 19.1452 27.4236 -14.0985 19.4908 27.0961 
-13.0566 19.9399 26.6186 -12.5809 19.9005 26.4914 -12.1186 19.7796 26.4438 
-11.5926 19.5296 26.4839 -11.029 19.3319 26.6094 -10.8992 19.0951 26.7021 
-10.7623 17.9267 26.8297 -18.7248 18.3315 32.9078 -18.8457 18.8808 32.3194 
-18.7997 18.9275 31.7338 -18.5172 19.7343 30.613 -18.324 19.9994 30.236 
-18.109 20.0746 29.9991 -17.5253 19.9322 29.5763 -17.202 19.923 29.3227 
-16.8401 19.9309 29.0353 -16.0075 19.528 28.4044 -15.2693 19.6077 27.8093 
-14.6959 19.5217 27.4346 -14.3185 19.5681 27.2083 -14.0759 19.9389 27.0767 
-13.6967 20.1433 26.8599 -12.3241 20.0451 26.4079 -11.7804 19.8415 26.4149 
-11.1787 19.5363 26.5262 -10.7592 18.5348 26.8243 -10.731 18.1329 26.9145 
-10.593 17.9313 27.0093 -18.7174 18.1338 33.042 -18.7651 18.5313 32.8093 
-18.7877 18.5545 32.5381 -18.8604 19.0332 32.0011 -18.868 19.4287 31.4259 
-18.7177 19.537 31.0117 -18.7388 19.7344 30.9214 -18.4958 19.991 30.4128 
-17.4963 20.0921 29.4935 -16.4566 19.9392 28.7268 -16.202 19.8099 28.5288 
-15.7519 19.6498 28.1934 -15.5393 19.5216 28.0309 -14.7814 19.9384 27.4862 
-14.3261 19.9388 27.2151 -14.0293 20.1322 27.0315 -13.2066 20.1287 26.6431 
-12.8289 20.117 26.5121 -12.3826 20.29 26.3453 -12.0955 20.1408 26.3521 
-11.9015 20.0124 26.3717 -11.5176 19.774 26.4365 -11.3149 19.7372 26.4596 
-10.8051 19.5282 26.6461 -10.5802 19.319 26.8213 -10.7348 18.7694 26.8245 
-10.4049 18.1255 27.2288 -18.667 18.3313 33.2093 -18.7313 18.6331 33.114 
-18.8399 18.8978 32.6073 -18.9251 19.2308 32.2061 -18.8379 19.1246 31.7053 
-18.8231 19.5313 31.2093 -18.6342 19.8991 30.6548 -18.492 20.3925 30.1993 
-18.1931 20.3315 29.9481 -16.9586 20.1453 29.0727 -16.6171 20.1256 28.8167 
-15.9641 19.7482 28.3507 -15.6242 19.9881 28.0612 -15.2754 19.9085 27.7996 
-14.0219 20.3453 26.9719 -13.6311 20.3408 26.7765 -11.7308 20.2796 26.2764 
-11.5239 20.2202 26.3008 -11.0969 19.7366 26.4921 -10.8079 19.7225 26.5768 
-10.7024 19.0951 26.8157 -10.517 18.4969 27.0421 -10.5183 17.9313 27.0807 
-18.6792 18.1313 33.2093 -18.8248 18.9178 32.812 -18.9282 19.2709 32.602 
-18.9419 19.2779 32.4106 -18.9279 19.3152 31.9088 -18.9245 19.4547 31.5984 
-18.9489 19.8254 31.2087 -18.9378 20.0298 31.014 -18.7791 20.2695 30.5881 
-18.7248 20.4153 30.4342 -17.7204 20.4904 29.4957 -16.4214 20.1164 28.6594 
-15.9909 20.1284 28.308 -14.7964 20.132 27.4764 -14.47 20.1303 27.2771 
-14.4683 20.3311 27.229 -13.2772 20.378 26.5987 -12.616 20.3309 26.3873 
-12.3716 20.6672 26.2076 -12.0427 20.5877 26.1923 -11.3329 20.286 26.3044 
-11.1078 20.1064 26.3869 -10.412 19.9573 26.6269 -10.38 19.5694 26.816 
-10.4214 19.1124 26.9892 -10.5073 18.9309 26.9845 -10.518 18.7391 27.0098 
-10.2857 18.6684 27.2287 -10.3535 17.9263 27.2421 -18.6117 18.1313 33.4093 
-18.6143 18.3367 33.3983 -18.823 19.0633 33.0082 -18.9103 19.349 32.8893 
-19.107 19.7466 32.1029 -19.0084 19.5436 31.8745 -19.0958 19.8763 31.6108 
-19.0935 20.0064 31.4055 -18.9202 20.2548 30.7997 -18.7083 20.7354 30.2923 
-18.486 20.7421 30.077 -17.9487 20.5701 29.6518 -17.3363 20.4824 29.2082 
-17.1105 20.3796 29.0944 -16.72 20.5725 28.7464 -15.5669 20.1168 28.0047 
-15.2122 20.16 27.74 -14.2878 20.6011 27.0267 -13.8402 20.588 26.785 
-13.5136 20.6282 26.5996 -12.9307 20.3561 26.4705 -12.6607 20.6998 26.2547 
-11.8636 20.9114 26.0909 -11.4728 21.0435 26.0801 -10.9286 20.2279 26.3844 
-10.726 20.0691 26.4742 -10.2722 19.2651 27.0213 -10.1333 18.6028 27.4118 
-10.2613 18.1336 27.3852 -18.5171 18.1311 33.6602 -18.777 19.1 33.2511 
-18.9924 19.5106 32.6491 -19.1299 19.8282 32.4102 -19.1092 20.2858 31.1642 
-19.0594 20.3313 31.0093 -18.9261 20.5657 30.6311 -18.801 20.7313 30.4093 
-17.5371 20.7367 29.2635 -16.912 20.4363 28.9392 -16.4428 20.6411 28.5026 
-16.1739 20.3227 28.4086 -15.1627 20.4108 27.6539 -14.8849 20.6042 27.3901 
-13.2121 20.7156 26.4231 -12.7409 21.052 26.1691 -12.4797 21.0996 26.104 
-12.1063 20.9895 26.0814 -11.115 20.9231 26.16 -10.8127 20.7573 26.258 
-10.5404 20.3696 26.4476 -10.124 19.7537 26.8408 -10.1076 19.4204 27.0176 
-10.1075 19.0879 27.2004 -10.3183 18.9313 27.1224 -10.0993 18.7358 27.3861 
-10.1943 17.9313 27.4093 -18.4737 18.3301 33.7784 -18.6134 19.1308 33.7769 
-18.8242 19.3185 33.2785 -18.9593 19.6174 33.0532 -19.1171 19.8612 32.6393 
-19.2265 20.1309 32.1933 -19.0996 19.7918 31.8159 -19.2007 20.1381 31.7327 
-19.1929 20.3313 31.4093 -19.0179 20.5313 30.8093 -18.7849 20.9313 30.4093 
-18.694 20.9294 30.2609 -18.1365 20.9299 29.7271 -17.9174 21.0246 29.508 
-17.2235 20.8084 29.0055 -16.8735 20.9611 28.7048 -15.7775 20.3322 28.1047 
-15.483 20.3257 27.903 -14.8599 20.325 27.4704 -14.6604 20.7638 27.1886 
-14.2494 20.9334 26.8746 -13.7131 20.7387 26.6473 -13.4111 20.928 26.438 
-12.9183 20.7313 26.3121 -11.9117 21.5193 25.9503 -11.7288 21.5054 25.9557 
-11.3149 21.1311 26.0727 -10.7014 20.4175 26.3848 -10.1286 20.369 26.6097 
-10.1183 20.1313 26.6911 -10.1643 18.8976 27.2497 -9.92303 18.7086 27.5936 
-10.0606 18.3374 27.5807 -10.1183 17.9313 27.505 -18.4526 18.1313 33.8093 
-18.5237 18.5615 33.7594 -19.179 20.1333 32.6753 -19.2135 20.1313 32.4093 
-19.2231 20.1313 32.0093 -19.1661 20.5313 31.2093 -19.1139 20.5336 31.0257 
-19.0192 20.7313 30.8093 -18.9432 20.7762 30.6382 -18.5057 20.9299 30.0581 
-18.3183 20.9313 29.8839 -17.4689 20.9215 29.1629 -16.4345 20.9386 28.3645 
-15.9965 20.5221 28.2112 -15.5385 20.6762 27.8209 -15.0572 20.9132 27.3899 
-14.4878 21.0069 26.988 -13.8052 20.9051 26.6366 -12.9999 20.9446 26.2731 
-12.7203 21.3573 26.1011 -12.174 21.418 25.9859 -11.5176 21.3311 26.0093 
-11.3183 21.3313 26.0344 -11.1183 21.1313 26.1008 -10.9173 20.9175 26.2022 
[...]
CELL_DATA 7812
FIELD FieldData 1
Area 1 7812 double
0.0092933262237 0.008898813801 0.019153554716 0.011822961295 0.022442909732 0.022597511659 0.013092635271 0.013711980226 0.017888924741 
0.045846558832 0.019151355622 0.0097212179134 0.037559165923 0.0087934784027 0.053258362945 0.020020351304 0.027961463671 0.0097240551498 
0.023343560289 0.035065214753 0.018905228482 0.017139813962 0.021261193486 0.027334429026 0.019963699968 0.057700366311 0.050991131486 
0.060800422388 0.054178515068 0.026195919223 0.0099019201454 0.0059746281812 0.036614296939 0.03796994299 0.021125896832 0.010344388858 
0.025435652208 0.038546513671 0.063646696092 0.066443427482 0.033784107625 0.060259892539 0.017499071451 0.016550706081 0.049461030233 
0.096357904372 0.081277250024 0.052585762611 0.10301625234 0.077359963114 0.06363738623 0.070251063209 0.042582108436 0.017104331395 
0.012349738672 0.01617767669 0.014712672269 0.0064290122242 0.022685850061 0.037925797286 0.040116039382 0.042135745795 0.022217189643 
0.010322455523 0.047522180771 0.04015020681 0.069939000057 0.082256071071 0.085636389482 0.060242668677 0.07477726413 0.072599329345 
0.031843824001 0.021562724202 0.093811557519 0.091629667926 0.060816596632 0.099121979266 0.084235946871 0.17382644752 0.095374379088 
0.046830735722 0.025934942962 0.032558259703 0.011662384468 0.0091635130865 0.013505177891 0.024435050677 0.056100735304 0.054386706536 
0.0565240269 0.02214536495 0.045625081718 0.079767785707 0.090993835584 0.052408108217 0.046726964158 0.068650501994 0.068403290268 
0.099490492158 0.078949477102 0.021922816554 0.034156868603 0.041818730047 0.023515178219 0.077867504531 0.049840430949 0.055233931888 
0.11750849676 0.11716490191 0.081146266705 0.10219402653 0.087922923406 0.054758163702 0.071447806706 0.027511528943 0.065461632096 
0.026552969563 0.015067610148 0.01052786001 0.045725047794 0.062741672554 0.061157421893 0.079934822606 0.061605498305 0.061931414207 
0.16238180029 0.093582432219 0.055675603711 0.059578904626 0.051483948426 0.045258942118 0.0646245458 0.037115149145 0.10392189899 
0.076681457647 0.030183994645 0.014865377233 0.040784183512 0.054589245857 0.042423440992 0.035661636261 0.058886702251 0.062563067302 
0.10073810712 0.063312283613 0.067332557323 0.056019390146 0.06380859861 0.056870450399 0.042853357269 0.014425097567 0.11823735617 
0.033458678329 0.029333455995 0.025794189532 0.026729020982 0.050056640497 0.064083382604 0.078804977384 0.073906500859 0.067374849399 
0.11364688073 0.16469617819 0.092376118222 0.04910108774 0.063271534665 0.073816396179 0.058611946433 0.069680397684 0.065575262988 
0.02804140618 0.046302064981 0.055814595565 0.14722431056 0.022235026338 0.019816984822 0.041089279668 0.033742899959 0.030569845209 
0.047278174049 0.058769842383 0.056467308731 0.09091970857 0.049617061374 0.071672340085 0.065960691907 0.08863563389 0.050931502222 
0.11350829376 0.11653101887 0.064623855137 0.077577977805 0.054779417776 0.04626588737 0.067799331667 0.029099701003 0.065827615629 
0.10380527342 0.088579547614 0.10464674893 0.12841759559 0.12503745311 0.054682313662 0.1074622529 0.02466591467 0.03476480583 
0.020852366556 0.040497250235 0.02400052224 0.065163381561 0.035023470017 0.028040379647 0.056454648168 0.015539145006 0.034407224691 
0.035833493423 0.051241679056 0.048337255393 0.033046670247 0.041611109079 0.029312763643 0.027731602062 0.03128577435 0.064181403478 
0.059920293131 0.064064154808 0.10521118407 0.10579323551 0.052156989758 0.081656996689 0.092840856829 0.051610911365 0.074556345591 
0.043764429042 0.079838821387 0.076083058416 0.034963475068 0.031913378969 0.077238319007 0.11244081276 0.13095699123 0.071146055657 
0.10613946303 0.044190257139 0.02893242363 0.048053417963 0.029330920084 0.030851336736 0.038845269126 0.041999139576 0.019218044006 
0.078478992407 0.068791280363 0.049915335456 0.020322488403 0.033622540743 0.039469911472 0.046159620225 0.035310212898 0.024193714169 
0.068486724144 0.042549859407 0.022939108342 0.036810626019 0.030586482313 0.049698673682 0.04826370344 0.048192252491 0.043631272008 
0.04007937985 0.050221058748 0.059083428794 0.062190783649 0.054611592747 0.059689007023 0.055043598464 0.074620825236 0.058031586879 
0.062572871017 0.040900742343 0.088455984866 0.032809932564 0.058274461145 0.070104065761 0.031830535895 0.049532577709 0.04893905415 
0.051711126844 0.041985257541 0.04433761694 0.024216955813 0.05511515263 0.034848624964 0.021556299905 0.025633132404 0.024292152186 
0.033652540049 0.044910395711 0.084104911194 0.10966992956 0.095543626285 0.037851551185 0.065372171368 0.041764740256 0.033931103772 
0.046635410914 0.039677402489 0.043044902123 0.03882331213 0.063564088896 0.081047343288 0.046380048262 0.04491720174 0.037293184463 
0.070826489298 0.10175883625 0.046413800955 0.079992688144 0.083742618501 0.070583919502 0.058331063982 0.17159029623 0.073915437245 
0.064654225084 0.045394256 0.064083789402 0.039855891459 0.049765104547 0.052468382253 0.044933342363 0.049678889947 0.03762431828 
0.041750570304 0.033906416117 0.035357462903 0.043642123365 0.039965433554 0.058190610549 0.027387241557 0.041357684973 0.045463917296 
0.030461585529 0.036147657049 0.030382673053 0.049457330517 0.04865251298 0.028770103655 0.030257378396 0.053715445299 0.034489067731 
0.025425839647 0.04254081254 0.034043385931 0.029777634517 0.052054188946 0.04472005476 0.10878894787 0.044147495404 0.034576314782 
0.051040747489 0.047240412833 0.062477439868 0.065918592884 0.039023890914 0.032445912211 0.069278073361 0.08529652865 0.088017824302 
0.11043441205 0.081800050451 0.027741386692 0.040759744184 0.055239849893 0.037225210009 0.074282800923 0.032240591026 0.037725891458 
0.032271244089 0.061060481493 0.026824972621 0.022660455074 0.040126623278 0.052451561068 0.026236227091 0.037090208966 0.038650877118 
0.064392913258 0.084313181318 0.01013435671 0.017192203351 0.046822562975 0.060200831795 0.053187778692 0.035075428955 0.055273161455 
0.03951923195 0.039380608167 0.039577209689 0.0326815955 0.037002577413 0.022942641582 0.060775149954 0.057241414297 0.072410400607 
0.078309536527 0.15231848431 0.068582070113 0.045462073634 0.022887297735 0.033505481914 0.057143776849 0.053761906401 0.057058553325 
0.065650024793 0.056921089486 0.051048024329 0.048611802915 0.056016795166 0.044477941443 0.052143987847 0.05121270416 0.031783288362 
0.059096446117 0.049764766819 0.071536515296 0.049124587213 0.04504116164 0.057544641064 0.042280766936 0.03177412095 0.043131801812 
0.056521565527 0.037372333798 0.043752312507 0.034377234669 0.073860618313 0.02306783727 0.02114394883 0.030111113419 0.05117406691 
0.044548723825 0.055679366764 0.039638058926 0.058484212357 0.034757234366 0.046308327286 0.040149624526 0.066785848427 0.052437012798 
0.047967165654 0.071193780719 0.051380287057 0.047500358887 0.056157262772 0.072984593799 0.050090364478 0.10002048298 0.087555350091 
0.098253172863 0.057893812647 0.087327385632 0.084961199813 0.031326998824 0.063252362167 0.037134491915 0.051694148406 0.071180249459 
0.056763873513 0.057442670744 0.045401565946 0.039324435966 0.046418658659 0.059173286214 0.080494331706 0.081530225661 0.063896432879 
0.080265481055 0.063056298648 0.035581285206 0.055651445178 0.066410762627 0.098317242627 0.054635094213 0.033438615148 0.030099381334 
0.027482996995 0.038018765249 0.068113711494 0.021539811472 0.027523174051 0.020176778833 0.090281494905 0.056082105283 0.038219257787 
0.034295382207 0.024028631897 0.089362780426 0.074369228666 0.03585997474 0.062928800471 0.064257873433 0.05610413271 0.047238486316 
0.038046388697 0.040520787543 0.033560479619 0.024301189891 0.055348997692 0.11752293073 0.047043989218 0.062936497149 0.068026245376 
0.034719278279 0.032292213858 0.097056139453 0.05619901006 0.034170276259 0.053843264183 0.063982037814 0.039189579053 0.098678645041 
0.066401880312 0.053312013081 0.056810324863 0.068902992281 0.064129966613 0.052512260488 0.069561954952 0.048175449448 0.16354205272 
0.13274502418 0.09565155767 0.042483665162 0.067166080697 0.064109170846 0.061865207703 0.040563790564 0.032455866376 0.021915080653 
0.022652960876 0.039575445975 0.016752997079 0.050019760011 0.02378692441 0.040717601545 0.2152816979 0.027445650333 0.056163422146 
0.047719530492 0.045880881281 0.066958554939 0.05800087471 0.036905977948 0.025231447359 0.037071669813 0.043035747678 0.027146658237 
0.033926121482 0.029842236723 0.043220919752 0.014934955605 0.029974062294 0.10847792176 0.12097149954 0.061035671656 0.054096636691 
0.057857642569 0.073698992545 0.078781485259 0.086345810173 0.050122876991 0.055860107136 0.044017855341 0.047601818313 0.032703124345 
0.045416659039 0.066845631978 0.059514931343 0.090175315689 0.026955666367 0.047637101544 0.06262581982 0.054160990255 0.047474282605 
0.062536729371 0.075405566166 0.073892116612 0.11035399117 0.026481439986 0.129203829 0.052621116943 0.039545209862 0.031000670376 
0.094952150984 0.064360072027 0.053594330139 0.034063619918 0.033821725464 0.025470356821 0.025620290791 0.019052142792 0.0558341293 
0.012571000976 0.016156891064 0.047476259807 0.10836289939 0.061758919712 0.058201548525 0.076655271066 0.031566955975 0.034025005422 
0.037000038991 0.050181666117 0.034050791307 0.05635067575 0.030842423245 0.017639139377 0.02444141815 0.020060543648 0.028062353159 
0.027202304029 0.016915541385 0.026260199695 0.023325349368 0.065840536816 0.059258533668 0.03409483317 0.10163552051 0.088528149537 
0.070895534089 0.050076502214 0.038260220478 0.07372821414 0.052446573627 0.060134312711 0.073241759972 0.050348241743 0.086306093549 
0.021662167041 0.041367312824 0.050440165657 0.035495744349 0.034503393234 0.041079432037 0.079165133411 0.061264671803 0.056698000522 
0.027250817078 0.016275216917 0.021468672199 0.016218191567 0.05226333583 0.032179390033 0.037640496207 0.04040107519 0.049355017807 
0.036802299704 0.036548853249 0.020633693664 0.031814876738 0.03691351359 0.026130238594 0.030187894528 0.026365490059 0.025133524246 
0.012357011842 0.024183064659 0.029155362554 0.041928381579 0.033740786566 0.097790406633 0.096402504942 0.066333434723 0.052516631381 
0.036019213591 0.042164699878 0.021811766191 0.018489834963 0.055790877307 0.020146235948 0.020389951794 0.023845384763 0.023596433541 
0.020945097436 0.020044293348 0.017953492948 0.013309289923 0.028463750302 0.024276617834 0.024183504095 0.028209005605 0.1733319243 
0.019473516309 0.084165928595 0.053054686591 0.080547754416 0.094553906748 0.042447768941 0.065003276545 0.080356217953 0.075677680729 
0.083033920719 0.083935641942 0.026456304553 0.053322512672 0.039254606566 0.041526700523 0.028770758358 0.029513841326 0.030772690027 
0.048185462345 0.038822272485 0.020755699353 0.021530492619 0.029614868495 0.021123097275 0.019882503731 0.025422741183 0.021814377446 
0.017877170074 0.028076772283 0.038236000859 0.025150870644 0.025914091941 0.028902321422 0.032826219301 0.064735001263 0.036666601989 
0.041573115651 0.016631254738 0.041596962129 0.038063664111 0.03154505715 0.042735527431 0.030032852207 0.028621138001 0.023524247066 
0.012724134598 0.044601386189 0.086022106027 0.049020793212 0.082116583368 0.069568550071 0.063601831227 0.056750972299 0.042536595472 
0.027027902817 0.021746975114 0.020163652303 0.027500657377 0.01969243636 0.02034410859 0.020042712909 0.02183720213 0.01895400506 
0.020182460846 0.024504392831 0.019929413983 0.017513692847 0.026285870631 0.0081168544548 0.023551143213 0.02458553249 0.025777772306 
0.020559181996 0.026422160551 0.026960474687 0.061394040984 0.078613031212 0.058908022117 0.032059054325 0.026331646558 0.064816013616 
0.074119470565 0.049781951465 0.044124538799 0.061685510641 0.086255104327 0.055636760602 0.066077465034 0.046736379294 0.058024849648 
0.07419356001 0.023002852437 0.039340243979 0.024734587736 0.070680468465 0.082779552636 0.056508814173 0.032058227645 0.021307450248 
0.021374451146 0.023753789543 0.019477842939 0.020345851054 0.021017647181 0.023120577068 0.015563934571 0.022760968511 0.032375954986 
0.020658448398 0.024323974489 0.030686329195 0.02219366027 0.030019889267 0.061934780698 0.036321434028 0.082269973725 0.030317081283 
0.032295491594 0.039085591114 0.036708522359 0.03069900751 0.04381876137 0.030525145881 0.03223186584 0.046724386973 0.11258911032 
0.075893055942 0.089375333212 0.092103544678 0.09709160109 0.033786999779 0.045234438619 0.046258927449 0.023639827465 0.02143844962 
0.020160296752 0.020117771444 0.020084143902 0.021946542518 0.020006599328 0.034011735446 0.026627438307 0.021538856949 0.028826888003 
0.039962673703 0.015795783577 0.015824332134 0.015639100071 0.020522838702 0.026384944701 0.021434951837 0.041565188589 0.037949242684 
0.027830996291 0.027568229015 0.071521524515 0.037050555382 0.060909140827 0.094353952405 0.063362764906 0.069986923933 0.0533792298 
0.049413384482 0.0433237545 0.049506195529 0.047550182056 0.042251100972 0.046587830372 0.030944659646 0.044720832813 0.054702155572 
0.077109947903 0.11305614614 0.07765994131 0.060078874362 0.05590449598 0.020493238669 0.020164355962 0.019451442048 0.025766391925 
0.020961550105 0.03157526745 0.007007647408 0.020306836739 0.031947558907 0.012646223044 0.012237649397 0.024148188785 0.013565075453 
0.01444848032 0.022826929219 0.020262555542 0.0279982333 0.050983694671 0.061561878651 0.032532450791 0.035889630493 0.035339444888 
0.01962036096 0.031412760255 0.0194180134 0.030800258792 0.033346274941 0.091488378644 0.054075308866 0.068679235802 0.07991781605 
0.094087551371 0.12623305611 0.035933768076 0.025815072386 0.031511784187 0.035738644969 0.039840916211 0.019032868976 0.040828799325 
0.021565333215 0.020539121915 0.020589207152 0.019829178612 0.03129351376 0.033778713061 0.027068479323 0.026913493734 0.030234041798 
0.021928975158 0.031694255645 0.028783073132 0.01760714564 0.018296111993 0.027296995875 0.02667997573 0.026382009274 0.029495850784 
0.034763847402 0.049905456161 0.092160104108 0.11608588415 0.056603383778 0.063739555757 0.043240091983 0.036428812455 0.055802085585 
0.063120399499 0.054702700441 0.069703664905 0.10522508964 0.073227264864 0.053095227597 0.097105771128 0.080753779988 0.046727148686 
0.021382025126 0.020617953135 0.020475927314 0.022903031071 0.019994599369 0.022981660586 0.031010872986 0.034538894334 0.024490685835 
0.0074379910569 0.02934465366 0.022231649209 0.013858105457 0.0095104625453 0.023623497553 0.013802392887 0.013987004086 0.023429896695 
0.02796069924 0.027201740455 0.024861601591 0.058125544545 0.041829731881 0.032586561111 0.033425167979 0.03689741867 0.049609988934 
0.043720927697 0.021699294014 0.041653571439 0.014290599831 0.045392820602 0.088399092399 0.041379538821 0.06645335075 0.05660880334 
0.073351392963 0.074601678094 0.013427459081 0.024651320727 0.031615052599 0.043631223423 0.039533290214 0.023764527087 0.010142196575 
0.0056051189514 0.015852732784 0.042184201885 0.03129726049 0.027497428726 0.039348244285 0.024724107827 0.01893992954 0.023044590457 
0.022698957062 0.045042058556 0.015363898106 0.017697912565 0.02374286308 0.026019404561 0.025439765807 0.029498716904 0.027493624861 
0.035626218142 0.062782126181 0.055613910682 0.079728940576 0.065019476341 0.05260392347 0.072343945611 0.083028618801 0.087991781141 
0.085896046077 0.051616534829 0.094113935386 0.075389700502 0.064411495049 0.10279158392 0.12279352154 0.12554328054 0.050736402937 
0.019130621849 0.022852369674 0.020242833589 0.011668057936 0.012343575363 0.018886472162 0.032305669634 0.029906474015 0.023815043787 
0.028888905094 0.016747518365 0.027227850703 0.023188723365 0.026885444817 0.017257879039 0.013071642368 0.012638089287 0.022986387566 
0.023140917872 0.02343945018 0.028775680125 0.024716618336 0.074581148967 0.039430189148 0.031656522446 0.041893185773 0.039557212451 
0.020993433429 0.02467335675 0.042683017002 0.025235156047 0.021946290864 0.024918082345 0.04071976846 0.07383489203 0.040084104301 
0.058124113795 0.085159131427 0.1373893665 0.051414332137 0.052451383465 0.03253401944 0.032483467884 0.020198606918 0.021342102555 
0.026004307275 0.041323895436 0.032019486758 0.029892865372 0.027427549353 0.041610555134 0.030223742916 0.02983508969 0.025568355261 
0.035357406945 0.022037255339 0.022014128019 0.018580618296 0.024762918562 0.027092583346 0.033235691913 0.022516851463 0.031106898377 
0.018474757705 0.023603310473 0.023567630638 0.029624792918 0.025509496902 0.026360703609 0.023888719956 0.02759576603 0.037021548719 
0.050319743036 0.061179908985 0.064926551208 0.059638731818 0.036367947381 0.030498407018 0.063326550244 0.093991541993 0.048660337973 
0.062448986964 0.12403718572 0.023379447875 0.023450617914 0.019074706495 0.022480614445 0.020526322467 0.019764400104 0.028862428635 
0.033396125136 0.021838103502 0.022031678658 0.0285365565 0.010957684866 0.01454709093 0.015388047126 0.025119066693 0.031499629888 
0.023747939582 0.020798895728 0.019432328458 0.013756587195 0.013183808315 0.025065413923 0.028014591977 0.014501493402 0.027431533792 
0.12131498087 0.02962047299 0.041092241567 0.052482599199 0.019918025843 0.020661464092 0.032686520865 0.037108825078 0.01984162971 
0.032114831161 0.034968640548 0.067749680658 0.086449608453 0.052235043514 0.13482463237 0.056312776531 0.062059138875 0.021881959128 
0.040076731724 0.019084827887 0.022470780185 0.022870086217 0.022912738097 0.049318758458 0.041965230579 0.032296010131 0.043290272449 
0.039163839484 0.02419242554 0.049335597734 0.036922942888 0.024625065949 0.024794190163 0.024217496957 0.022673619106 0.026021380772 
0.026118748689 0.023554919709 0.032029434928 0.029177184423 0.031136331867 0.02192854707 0.025824234787 0.032270085455 0.023691138864 
0.029519633716 0.052803644526 0.069577241821 0.066314583142 0.045243077007 0.039120991217 0.072728256028 0.092290526112 0.024320409397 
0.042193481404 0.14691994221 0.072782816948 0.026664780473 0.021986793892 0.01104235736 0.0096440699216 0.020742976781 0.0052489188057 
0.01060588931 0.011814225198 0.027005380691 0.021498471853 0.023713449439 0.031006401321 0.010662466695 0.012917732088 0.025563583103 
0.027638443264 0.025933539457 0.022255634767 0.023897971279 0.0056643010543 0.022751322311 0.014327487544 0.033424793482 0.016737139889 
0.017573385343 0.050108790402 0.045003993239 0.026110961198 0.031281564597 0.069975891525 0.025773805417 0.032484088963 0.031471332052 
0.042359045432 0.039778632931 0.024071511978 0.044705514958 0.019599474559 0.016580050167 0.0219077588 0.057524219169 0.031407451387 
0.069464482485 0.078470499455 0.068873981204 0.026960404014 0.054139151273 0.021800329262 0.016839176271 0.015353490386 0.028982918107 
0.0081626475395 0.022094964644 0.019141338299 0.0429951116 0.053928780864 0.047116215841 0.04450445707 0.033951796268 0.03336804297 
0.042889758356 0.046941241041 0.048710825095 0.032525857019 0.022649542542 0.021560160082 0.024682484418 0.022050893304 0.031465101957 
0.020816365916 0.030153068499 0.015630920535 0.022143645424 0.034806376818 0.055587454932 0.030416053344 0.057357606104 0.047578899267 
0.044082651213 0.046275020275 0.10236063845 0.10157112077 0.092230483618 0.1008996571 0.14947535564 0.055727251733 0.02407091357 
0.017057309128 0.015036550917 0.014451275353 0.0071767579559 0.011983628594 0.013086175291 0.041349723912 0.020146262228 0.026395976771 
0.035674173991 0.02388729269 0.040691759066 0.050124992143 0.022109742522 0.022219079904 0.023820145839 0.0085215997264 0.019225155328 
0.023904084758 0.02075816321 0.0089539547555 0.01526599714 0.026066298211 0.056670421672 0.033783623742 0.034117856054 0.049913200896 
0.052313291286 0.043734702071 0.044133431321 0.053703637312 0.053506261097 0.040133921448 0.027945327967 0.042856852857 0.028285035199 
0.048579395247 0.089302219656 0.063264689053 0.06734450932 0.073704720602 0.09144283574 0.032418716612 0.021168109324 0.029033360109 
0.011589593831 0.032526123698 0.027611363457 0.03076887853 0.022389238048 0.017731972172 0.014030936637 0.02054618965 0.02270291676 