# vtk DataFile Version 4.2
vtk output
ASCII
DATASET POLYDATA
POINTS 20219 float
14.2176 -8.36301 1.5046 14.1988 -8.51671 1.31071 14.1208 -8.47831 1.49761 
14.3241 -8.37011 1.31234 14.3123 -8.31111 1.4295 14.5407 -8.10861 1.36018 
14.3488 -8.11071 1.67629 14.4487 -8.07421 1.5655 14.6309 -8.01701 1.36078 
14.5788 -7.94361 1.57214 14.453 -7.99811 1.68952 14.5762 -7.80851 1.81264 
14.7029 -7.90991 1.43035 14.6908 -7.70741 1.81635 14.5652 -7.73641 1.96368 
14.6925 -7.64151 1.94308 14.5767 -7.60891 2.18878 14.499 -7.72141 2.10442 
14.4539 -7.66081 2.30053 14.5761 -7.55451 2.31136 14.4763 -7.59681 2.40458 
14.5843 -7.48721 2.44773 14.6955 -7.45791 2.31567 14.7085 -7.39671 2.43001 
14.6155 -7.42451 2.55152 14.5438 -7.47091 2.59788 14.5863 -7.41121 2.69364 
14.5194 -7.46651 2.73748 14.5821 -7.40671 2.83976 14.6381 -7.35421 2.82938 
14.6541 -7.35151 2.71638 14.7013 -7.30491 2.79132 14.6978 -7.31071 2.93293 
14.7659 -7.24751 2.84929 14.766 -7.25951 2.75256 14.731 -7.30281 2.66701 
14.8552 -7.21711 2.66378 14.822 -7.26661 2.56701 14.9479 -7.19311 2.56123 
14.9483 -7.15101 2.68873 14.8561 -7.18261 2.81105 14.9508 -7.11751 2.80913 
14.8919 -7.14411 2.93133 14.9766 -7.08681 2.94488 14.9451 -7.12541 3.04106 
14.8805 -7.18271 3.02835 14.82 -7.20131 2.93429 14.8099 -7.24631 3.03378 
14.8917 -7.23011 3.10679 14.8094 -7.31121 3.10061 14.9168 -7.27181 3.15958 
14.984 -7.18551 3.1448 15.1087 -7.14761 3.21001 15.0936 -7.09071 3.14367 
15.0132 -7.11381 3.1039 14.9388 -7.17811 3.09988 15.0163 -7.07781 3.02186 
15.0685 -7.04671 3.06585 15.0509 -7.04471 2.9457 15.1349 -6.99821 2.97505 
15.1049 -7.03491 2.81146 15.0669 -7.08171 2.70339 15.2018 -7.02311 2.68535 
15.2004 -7.06311 2.56456 15.3288 -7.00601 2.56455 15.3282 -7.04851 2.439 
15.453 -6.99671 2.43899 15.4533 -7.04551 2.31456 15.3277 -7.09761 2.31356 
15.201 -7.10631 2.43988 15.2039 -7.15781 2.31455 15.0705 -7.17441 2.43852 
15.0776 -7.12161 2.56399 14.9529 -7.23751 2.43925 15.0732 -7.22191 2.31657 
14.9465 -7.29561 2.31151 14.8189 -7.31821 2.437 14.7349 -7.33071 2.55676 
14.8266 -7.36591 2.31382 14.9495 -7.34891 2.19115 14.825 -7.42931 2.18478 
14.6908 -7.51891 2.19235 14.8273 -7.48531 2.06471 14.6906 -7.57971 2.06749 
14.8245 -7.55041 1.93349 14.948 -7.46651 1.94231 14.9465 -7.41341 2.0658 
15.0788 -7.39421 1.9403 15.0781 -7.44881 1.81437 14.9523 -7.52231 1.81413 
15.0748 -7.50691 1.69168 14.9528 -7.58331 1.68951 14.7731 -7.63141 1.84208 
14.9447 -7.65151 1.566 14.8263 -7.73361 1.56424 14.6018 -8.11301 1.255 
14.9421 -7.77051 1.31833 15.0754 -7.68041 1.31072 14.4533 -8.31901 1.17884 
14.8303 -7.93351 1.18455 13.5968 -14.2451 1.31268 13.4998 -14.1283 1.41203 
13.4216 -14.0195 1.34341 13.4089 -14.0038 1.46698 13.3226 -13.8794 1.41214 
13.2481 -13.757 1.34172 13.2466 -13.7549 1.46846 13.1796 -13.6287 1.41222 
13.3232 -13.8779 1.53706 13.2487 -13.7546 1.59208 13.3037 -13.8485 1.65048 
13.2387 -13.7507 1.71814 13.2923 -13.8628 1.81474 13.2272 -13.7675 1.83271 
13.2351 -13.8841 2.06759 13.152 -13.7651 2.06209 13.1087 -13.6299 1.93682 
13.1558 -13.6387 1.80435 13.0794 -13.5032 1.81551 13.044 -13.5078 1.94339 
13.0274 -13.3777 1.81543 12.9906 -13.378 1.93789 13.0077 -13.5171 2.06459 
13.0641 -13.6303 2.06395 13.0313 -13.6312 2.18735 12.9618 -13.5067 2.19232 
12.9937 -13.6301 2.31453 13.0767 -13.7502 2.31549 13.0397 -13.7537 2.44263 
13.1235 -13.869 2.41996 13.0837 -13.8884 2.55535 12.9878 -13.7562 2.56594 
13.0303 -13.8897 2.68782 13.1297 -14.0089 2.68625 13.0639 -13.9852 2.81467 
12.962 -13.8073 2.71669 12.9367 -13.8756 2.94094 12.9005 -13.7642 2.81556 
12.8467 -13.7648 2.94279 12.9581 -13.9984 3.15107 13.052 -14.0597 3.026 
13.0091 -14.0744 3.17406 12.9055 -14.0085 3.29016 12.8346 -13.8826 3.18584 
12.7932 -13.8788 3.31397 12.7381 -13.759 3.18834 12.781 -13.7607 3.06221 
12.7119 -13.6296 3.06214 12.7681 -13.6296 2.9379 12.8184 -13.6268 2.8162 
12.761 -13.5131 2.81539 12.7137 -13.5049 2.94355 12.6922 -13.3773 2.81414 
12.6636 -13.3774 2.93828 12.6417 -13.2594 2.81485 12.6138 -13.25 2.94009 
12.6216 -13.3802 3.06441 12.6684 -13.5004 3.06387 12.6338 -13.4997 3.1891 
12.5854 -13.3825 3.18376 12.6144 -13.5129 3.31491 12.6529 -13.6392 3.31992 
12.6281 -13.6422 3.43976 12.5852 -13.5076 3.44612 12.5931 -13.6274 3.56432 
12.6434 -13.7586 3.5581 12.6103 -13.742 3.70072 12.675 -13.8806 3.68853 
12.6524 -13.8644 3.79823 12.609 -13.7525 3.84226 12.6131 -13.7476 3.97041 
12.6491 -13.88 4.03935 12.6137 -13.7471 4.06881 12.6342 -13.8124 4.14851 
12.6637 -13.9017 4.1891 12.645 -13.798 4.24282 12.6218 -13.7503 4.17838 
12.6416 -13.7128 4.26624 12.6121 -13.6804 4.16761 12.5921 -13.6503 4.05542 
12.6115 -13.6181 4.1857 12.6067 -13.5652 4.13143 12.5745 -13.56 4.02777 
12.5773 -13.6242 3.91676 12.5472 -13.5103 3.94572 12.5557 -13.4777 4.03117 
12.5374 -13.4231 3.99276 12.5117 -13.3608 3.93005 12.5419 -13.2998 4.00785 
12.5099 -13.2346 3.94251 12.4882 -13.281 3.86847 12.494 -13.1844 3.87406 
12.4665 -13.2237 3.80774 12.4557 -13.1159 3.81763 12.4526 -13.1746 3.73027 
12.4339 -13.072 3.7441 12.4327 -13.1267 3.66734 12.3943 -12.9655 3.55536 
12.3967 -12.9941 3.45525 12.4215 -13.0915 3.51761 12.4145 -13.0158 3.33401 
12.4435 -13.1445 3.43911 12.4607 -13.1313 3.31633 12.4876 -13.2512 3.43919 
12.4783 -13.2708 3.56599 12.449 -13.1824 3.61593 12.4822 -13.3122 3.77236 
12.5038 -13.3733 3.69116 12.5004 -13.3859 3.82021 12.5295 -13.5013 3.81733 
12.5356 -13.5022 3.6892 12.5683 -13.6271 3.78741 12.5694 -13.6108 3.67286 
12.557 -13.5005 3.56447 12.5163 -13.3755 3.56421 12.5399 -13.3793 3.43454 
12.5591 -13.3772 3.31481 12.5182 -13.265 3.31474 12.5436 -13.2602 3.1934 
12.5748 -13.2505 3.06441 12.5278 -13.1305 3.06474 12.4963 -13.1324 3.19025 
12.4849 -13.002 3.06277 12.5176 -13.0014 2.93985 12.5602 -13.1299 2.94151 
12.5508 -13.0011 2.81486 12.589 -13.128 2.81465 12.5846 -13.0004 2.68954 
12.6198 -13.1277 2.68865 12.6664 -13.2591 2.69051 12.6608 -13.1276 2.56396 
12.7098 -13.2534 2.56424 12.729 -13.3781 2.68587 12.7716 -13.376 2.56548 
12.7938 -13.5047 2.69186 12.8299 -13.5042 2.5637 12.8611 -13.6281 2.68795 
12.914 -13.7073 2.66479 12.9033 -13.6292 2.563 12.9489 -13.6292 2.44002 
12.8766 -13.5066 2.43933 12.9208 -13.5048 2.31659 12.8601 -13.3767 2.31506 
12.9059 -13.3781 2.18781 12.9459 -13.3775 2.06432 12.8537 -13.2516 2.19019 
12.9441 -13.2582 1.94384 12.9871 -13.2558 1.81548 12.9168 -13.0053 1.81559 
12.8113 -13.0018 2.06399 12.8246 -12.8819 1.94623 12.8535 -12.7619 1.81453 
12.9023 -12.751 1.70404 12.8541 -12.5077 1.69469 12.9066 -12.5012 1.58042 
12.9563 -12.7509 1.56594 12.9604 -13.0039 1.6922 12.9965 -13.0012 1.56564 
12.9903 -13.127 1.68898 13.0215 -13.2513 1.69086 13.058 -13.3782 1.69025 
13.0461 -13.2528 1.5656 13.0779 -13.3775 1.56571 13.1085 -13.5036 1.69142 
13.1241 -13.5038 1.56589 13.1735 -13.6271 1.66286 13.1799 -13.6278 1.53737 
13.127 -13.5032 1.44046 13.098 -13.3923 1.31528 13.1319 -13.5029 1.31528 
13.0547 -10.8758 1.439 13.1436 -10.8757 1.31389 13.1752 -11.1258 1.19096 
13.0862 -10.7507 1.43848 13.1766 -10.7507 1.31378 13.1229 -10.6256 1.43806 
13.2959 -10.3759 1.31327 13.2078 -10.3761 1.43892 14.0053 -8.71451 1.37574 
14.0089 -8.78121 1.29057 13.9209 -8.85161 1.35978 15.7029 -7.35201 1.31493 
15.5757 -7.44811 1.18616 15.4542 -7.41521 1.44074 15.8291 -7.31121 1.31565 
15.5787 -7.26311 1.69018 14.0092 -8.61861 1.49355 13.9259 -8.75261 1.46428 
13.7675 -8.76801 1.72434 13.8593 -8.65551 1.71137 14.0375 -8.51451 1.59011 
13.9756 -8.48571 1.75657 14.0903 -8.33911 1.77822 14.1603 -8.36371 1.59947 
14.2492 -8.16971 1.75002 14.154 -8.23471 1.82146 14.2402 -8.10261 1.8724 
14.3479 -8.04181 1.78951 14.3886 -7.90551 1.95814 14.287 -7.99751 1.97424 
14.4045 -7.82751 2.07517 14.2113 -8.03831 2.04219 14.2249 -7.98031 2.13006 
14.3847 -7.77541 2.20331 14.3262 -7.79321 2.28034 14.3503 -7.72291 2.37832 
14.2181 -7.86191 2.36964 14.2818 -7.75391 2.45999 14.3746 -7.66151 2.47578 
14.3169 -7.69551 2.53945 14.23 -7.77951 2.54938 14.2749 -7.71631 2.64386 
14.2071 -7.78721 2.69229 14.2856 -7.70251 2.73736 14.3385 -7.64421 2.69976 
14.3078 -7.68801 2.8108 14.3735 -7.60901 2.80393 14.3966 -7.58471 2.72356 
14.4792 -7.49921 2.79999 14.4578 -7.53121 2.67924 14.535 -7.45801 2.87982 
14.4813 -7.53341 2.9218 14.542 -7.52481 2.99162 14.5814 -7.43021 2.9452 
14.6466 -7.47411 3.07133 14.6382 -7.59141 3.12152 14.7571 -7.52721 3.18883 
14.6975 -7.44251 3.0948 14.7992 -7.44001 3.17576 14.7612 -7.35461 3.09279 
14.6828 -7.36801 3.01289 14.7573 -7.30161 3.02841 14.7679 -7.24971 2.95236 
14.637 -7.36771 2.94135 14.6483 -7.42481 3.0306 14.8335 -7.34621 3.14643 
14.8918 -7.39911 3.22505 14.9811 -7.38421 3.27692 14.9834 -7.48791 3.36594 
15.0845 -7.44281 3.41623 15.0903 -7.32801 3.31269 15.208 -7.35911 3.43057 
15.2041 -7.45441 3.56122 15.3355 -7.27391 3.43722 15.4539 -7.27401 3.55333 
15.3311 -7.42191 3.68739 15.7056 -7.16581 3.68497 15.5789 -7.29521 3.8135 
15.704 -7.21911 3.81329 15.6935 -7.26091 3.95047 15.8288 -7.18341 3.93854 
15.8305 -7.14611 3.81133 15.9543 -7.11931 3.93764 16.0622 -7.09361 4.04741 
16.08 -7.05791 3.93577 16.1779 -7.05201 4.06209 16.0785 -7.10221 4.16186 
16.205 -7.06261 4.18899 16.3186 -7.00641 4.07114 16.3293 -7.03081 4.21659 
16.4546 -6.99761 4.18684 16.4539 -7.01331 4.31447 16.5792 -6.99331 4.31369 
16.5929 -6.96071 4.17213 16.8138 -6.96241 4.32854 16.7097 -6.93881 4.17718 
16.9217 -6.93761 4.29273 16.8301 -6.97741 4.43894 16.9559 -6.96471 4.4378 
17.0517 -6.92781 4.31402 17.0815 -6.95141 4.43636 17.1925 -6.91491 4.34066 
17.3024 -6.92711 4.43504 17.2045 -6.94861 4.56466 17.33 -6.94021 4.56398 
17.4267 -6.91681 4.43935 17.5635 -6.93551 4.57876 17.569 -6.90961 4.46648 
17.6863 -6.92451 4.5519 17.5795 -6.94851 4.68923 17.8292 -6.94661 4.68991 
17.8292 -6.91781 4.56491 17.9608 -6.93701 4.67125 18.0003 -6.87181 4.51603 
17.8292 -6.87611 4.46305 17.7682 -6.90071 4.49903 17.8292 -6.86381 4.43991 
17.948 -6.81841 4.42321 17.9358 -6.74681 4.34524 18.0586 -6.75391 4.39545 
18.0354 -6.66461 4.33168 17.9593 -6.61241 4.27351 18.0622 -6.52011 4.28597 
[...]
CELL_DATA 40434
FIELD FieldData 1
Area 1 40434 double
0.015506508481 0.020605726151 0.020915451883 0.023167688438 0.032695279782 0.014413055301 0.021083229728 0.012174290823 0.022526061456 
0.021772077144 0.031711970661 0.01238897783 0.011271277969 0.020245001345 0.011825317128 0.013652857239 0.010300467391 0.0085532425977 
0.0099021072518 0.010981975997 0.0097496508316 0.0088838506269 0.0060813122987 0.0058183311901 0.0057814311476 0.0063402608956 0.0056134576774 
0.00527596228 0.0042708161307 0.0055560193456 0.0063072187377 0.0039786124705 0.0044694948653 0.00664813287 0.0075730238992 0.0074543356972 
0.0072501092274 0.0083075626497 0.0070995037596 0.0069913514272 0.0067035929565 0.0052928142692 0.0045029341363 0.0045342463831 0.0047958981509 
0.0041895182436 0.0048027929037 0.004124554696 0.0037269172652 0.0060108086033 0.0061369618972 0.0038767903047 0.0027591395811 0.0034526687527 
0.0035211714958 0.0031544771249 0.003364280171 0.0033092769826 0.0055799869343 0.007260966153 0.011888227548 0.0096014201805 0.0086777665694 
0.0094263192424 0.0088554577693 0.0092286573676 0.0088827030271 0.0089438469193 0.0090552550983 0.0093066373298 0.0092365249658 0.0098378490223 
0.0097546678743 0.0088852129725 0.0097759899714 0.0086035584141 0.0086387853401 0.0098937068183 0.010593790016 0.010669037965 0.0071916709792 
0.0087735012232 0.0087753858194 0.0091338450229 0.0090185651009 0.010216163479 0.011143165688 0.010815121578 0.010532435191 0.011214529046 
0.011775200014 0.010388450768 0.0091651068594 0.0099021170648 0.010081343658 0.010029066459 0.0096071218904 0.0096860357686 0.010356517541 
0.015934259181 0.0083172126547 0.015467243334 0.021631618908 0.016463653299 0.0074059391257 0.02164979784 0.02803111802 0.01613422662 
0.020186046496 0.011879068762 0.0099078584442 0.0091264070569 0.0090838147275 0.0089284338338 0.0072010885933 0.0071165987434 0.0099046192999 
0.0067691936562 0.014867478772 0.01733246501 0.019080904981 0.010557057208 0.010528045279 0.0090932919087 0.0089963815344 0.0089585266187 
0.0089095229839 0.0080041545329 0.0080226685801 0.0093672993536 0.0093086143618 0.0095538781707 0.009586137193 0.0091427776081 0.010066037355 
0.010537733282 0.01124857889 0.010756004543 0.010291057461 0.0083874184707 0.021652523673 0.010307825348 0.0095366500742 0.015709926549 
0.018734924952 0.0072127293616 0.0070033612031 0.011835303225 0.010923011975 0.010288402678 0.010184031891 0.0097438120858 0.009916471169 
0.010354328329 0.01019607946 0.0082969018174 0.0090638568265 0.010202727462 0.0087237069788 0.0081342965616 0.008686811797 0.0090420223966 
0.0085337562818 0.0083325138234 0.0079042745465 0.0080959101861 0.0084194547924 0.0080874966961 0.0094082209525 0.0089552186744 0.0088803264655 
0.010088659503 0.010874161597 0.0083080254498 0.0087049922048 0.0076308457043 0.01606243214 0.0067620076156 0.0064913546574 0.0065406080453 
0.0047047542023 0.0028457781947 0.0034471238732 0.0034023805793 0.003852656319 0.0053769877968 0.0038226949397 0.0043650720979 0.004841243707 
0.0060024334814 0.0081393625432 0.0056909480002 0.0036161695987 0.0030689516042 0.0043739100324 0.0046668105228 0.0049419925452 0.0046087982402 
0.0035687642163 0.0033252216737 0.0038135013282 0.0044715555495 0.004220756262 0.0036777115073 0.009425976445 0.0098928902447 0.0063760663375 
0.0069213003804 0.0081911855618 0.0077996213158 0.0071897885498 0.0073778009018 0.0091818274613 0.010632823502 0.0081998275227 0.0083411181581 
0.0046338795996 0.0043792135956 0.0077050635663 0.0077104452674 0.0085117335329 0.0084025673362 0.0085363725415 0.0085528769265 0.0066474162619 
0.0076701415598 0.0071563597274 0.0072590887806 0.0083131310764 0.0086384281772 0.0083108179709 0.0082710842679 0.0072365667356 0.0074038656873 
0.0085367809148 0.0085959428779 0.0085725619526 0.0088099649324 0.0087564878651 0.0085995827284 0.008608016244 0.0087349462232 0.008609470799 
0.0085230648322 0.0084971541104 0.0085788970291 0.0085464895127 0.0091487573782 0.0088268225593 0.009112695469 0.0089950930688 0.0088939155736 
0.0088513620072 0.0086972206899 0.0090469270665 0.0091147761125 0.0093077153411 0.0092507636307 0.0093381542909 0.010653150894 0.0079239212356 
0.0059147242005 0.0080953558465 0.0079559211505 0.0098523371267 0.0091949501813 0.0091716743174 0.0094864094014 0.0091781673521 0.0094863759641 
0.0091272160316 0.0090707765295 0.0088084365948 0.016997751646 0.0085037364509 0.0086201785991 0.017570305664 0.035785162352 0.017000749279 
0.018052505599 0.015250199917 0.015036550703 0.015626684916 0.018761989295 0.019111174399 0.016680881265 0.0083207181094 0.0084833742032 
0.0082891613788 0.0082938302312 0.008485239986 0.0084081484279 0.0081107326395 0.0085163783206 0.0085878540118 0.0084981468739 0.0087079409844 
0.010014961601 0.0099573532311 0.0084937454742 0.0091609475942 0.0085210402451 0.0085053382434 0.0089597112693 0.00724565853 0.01951263678 
0.0098429206106 0.0098977883856 0.019878121019 0.0071175505185 0.027236582573 0.026215880306 0.011576497224 0.0089203839917 0.024162264537 
0.016467650323 0.018209715128 0.018775719692 0.016854232626 0.018772400098 0.010214330937 0.0079741340557 0.013746272577 0.016941108503 
0.0091147703429 0.0097993385888 0.0088287992548 0.0091187148254 0.016380680341 0.013528432046 0.009135479685 0.011778174297 0.012435735082 
0.016864663228 0.0094349302891 0.012756598066 0.008105822875 0.0088258052219 0.0095780526116 0.0085764248219 0.0061542529796 0.0048078060396 
0.0052384585233 0.0061488030245 0.0065208807203 0.0050077820089 0.004008013418 0.0033856681611 0.0055263139464 0.0037408762896 0.0060584732196 
0.0057500663786 0.0043033351409 0.004235924977 0.0051952447934 0.0046965848484 0.0047198646609 0.0074867573852 0.0088995518282 0.0093012501206 
0.004314015552 0.0061142972121 0.0062559580974 0.0053312238215 0.0040656185311 0.0046757895291 0.0042278647698 0.0032078992063 0.0033890377144 
0.0029172648811 0.0041482174844 0.0044208790873 0.0026055572447 0.00204128988 0.0028385586853 0.004628885422 0.0051567228108 0.0061793348408 
0.0075723212753 0.0069402863799 0.0083101753161 0.0097490705797 0.010717541063 0.011666453886 0.01179459602 0.021167886768 0.021249181026 
0.03247387422 0.030028870457 0.009945790519 0.010281790468 0.010793276426 0.0095503790393 0.0092422913661 0.007998912639 0.0079622962142 
0.0072777069495 0.006995574254 0.0081957712046 0.0093828074452 0.0094304203031 0.0096480597315 0.008262617626 0.0081548113025 0.010173003302 
0.017264386984 0.0091021728499 0.010454001294 0.0064242399013 0.0093878761028 0.0093221285017 0.0079256554565 0.0084943908233 0.010893818044 
0.01438599991 0.0081721446717 0.0080412791219 0.015476382081 0.0083012067141 0.0070013808208 0.0070668148949 0.017424563958 0.0091851910416 
0.0084472012882 0.013317026934 0.0095087355798 0.0033943539592 0.00080175353808 0.0016129531131 0.0066557076343 0.0064296442115 0.0066586690218 
0.0069711603351 0.0073358075469 0.0063456156247 0.0072504014033 0.004775919946 0.0073477513935 0.0029245559456 0.0039097163271 0.0051561993138 
0.0081041123894 0.004799364208 0.0052208114178 0.0058953415667 0.0051324026642 0.008459349108 0.014701806405 0.0056890307808 0.0036302678064 
0.0050805796539 0.0040107375082 0.006547724809 0.0057411987916 0.0043692646519 0.006260998783 0.0067979368013 0.0064080706294 0.0058321914891 
0.0063095960633 0.0074621019616 0.0045197653518 0.0070478373252 0.0074666960074 0.0068632323013 0.0086433702121 0.011966984366 0.0040536465506 
0.0078726980883 0.0050425517641 0.0076290896621 0.0084782040433 0.0073559649672 0.010552155535 0.0057056002577 0.0064701059399 0.0083483317167 
0.0074667565683 0.0068564274626 0.008016524946 0.010179744749 0.0096066041548 0.0061999796722 0.006717352839 0.0087193903017 0.0098324523688 
0.010209254302 0.013090001004 0.011549161382 0.011377107202 0.011364532241 0.011463685448 0.0070958936254 0.0070367837042 0.010572402523 
0.0089973248231 0.011953460129 0.010579028396 0.0087005609452 0.0095819423739 0.0079495368746 0.0077018345918 0.0049340500823 0.0033462721248 
0.0058718856475 0.006077331017 0.0038761797282 0.0031598430058 0.0037965681885 0.0036641740503 0.0065676740393 0.0074554909937 0.0075158925278 
0.0082471564583 0.010003832563 0.0087799377917 0.0064244493608 0.0066926640396 0.0055530916748 0.0043455106151 0.003326642455 0.0035118961868 
0.0033607896468 0.003887330241 0.0040494607901 0.0039732827643 0.00474376042 0.0074338272421 0.010527352772 0.0054377824714 0.0081678342041 
0.0039922633031 0.0038078328252 0.0023691468194 0.0038807102488 0.0037672176222 0.0033090591961 0.0050004202007 0.0046397401739 0.0094403379408 
0.014832771299 0.0098310663122 0.015516771927 0.0088594389803 0.0087033641843 0.0087525438204 0.0086979038392 0.0086542384861 0.0086279464705 
0.0086656226612 0.0086565761394 0.0086959651863 0.0086752182065 0.0086646450951 0.0086356346673 0.008683327524 0.0087297315157 0.008688743415 
0.0086698552029 0.0086720629228 0.0087105666126 0.0086987927926 0.0087700696451 0.0088207685035 0.0089081342665 0.0090470313101 0.0090818880182 
0.0090294197574 0.0091249704256 0.0090825397276 0.0093136700248 0.0094209738284 0.0093715693532 0.0098184015943 0.0196111101 0.019605116865 
0.010420897976 0.019067784066 0.009516999063 0.019119721022 0.019692420793 0.0097891710877 0.0089057779515 0.0093680865415 0.010436211769 
0.010075573126 0.0084538676849 0.0084474041289 0.0082350579966 0.0082176807199 0.022491947492 0.015249382728 0.0093725425614 0.0096168974936 
0.0084331140357 0.0083772278688 0.018121855288 0.018161538717 0.018094428665 0.017761500947 0.0088891795952 0.0088934032937 0.0089347841476 
0.0088575476323 0.0088165058156 0.0088225180202 0.0087794173427 0.0087821372859 0.008777537339 0.0086873182803 0.0086390106639 0.0086175894888 
0.0086262658535 0.0086593203266 0.0086945013617 0.0087499960056 0.0086445674159 0.0086769681788 0.0086105524345 0.0091939788801 0.010727931938 
0.026278720017 0.01812562812 0.011427259422 0.016056308678 0.032850861295 0.01783540323 0.0078826556499 0.0079210723016 0.0079229831431 
0.012682703147 0.0085536166297 0.0079275065073 0.017237047446 0.017964822379 0.0079175037295 0.0086217892732 0.010386893899 0.015052732558 
0.01626072737 0.0080613778042 0.0080077273074 0.0079882386138 0.023832437316 0.015865832503 0.015912655514 0.0079700157716 0.0079701860183 
0.0080433763199 0.00802912353 0.0080608495381 0.0080299953028 0.0080347574011 0.0079832697393 0.0079671060561 0.015864932036 0.0079090554829 
0.0078940600571 0.0079127134513 0.0078627577172 0.0079270060779 0.0079507204867 0.0079446772333 0.0079713611794 0.0079478342593 0.0079671651357 
0.0079506540909 0.0079608459063 0.0079421834768 0.007931916806 0.0079529337078 0.0079345647446 0.0079410102092 0.0079410970107 0.0079531258097 
0.0079266313255 0.0079095010268 0.014160612405 0.026703375978 0.024421432816 0.027549709265 0.045370168558 0.026739054704 0.019979640802 
0.016838124003 0.006192708594 0.0089708708956 0.0084813999181 0.015841604814 0.0083221660356 0.015879445525 0.0079916610241 0.0089474346024 
0.0080512617 0.0094288012086 0.0079747716092 0.0087614683334 0.018109712304 0.0079900105552 0.007970442438 0.0091654744099 0.0087817710356 
0.010371534462 0.0093498074289 0.0088676799433 0.0075233388261 0.015080160616 0.016707719573 0.0073145745135 0.008305762056 0.0077856851117 
0.012484909415 0.022950824261 0.02817596079 0.01853608659 0.019599515528 0.010490932404 0.0069110011296 0.0080392643671 0.016893144345 
0.010024924037 0.016479071399 0.011899866957 0.010054525008 0.0095813481689 0.009741988213 0.0094532985139 0.0094808476691 0.0097519337969 
0.0097767670696 0.0096813572236 0.007343540009 0.0086412390735 0.010281928097 0.010171648361 0.0089540150026 0.0066673859055 0.01026955234 
0.0094443807596 0.009440915573 0.0098681301891 0.0073095957121 0.0081790908933 0.0093940840732 0.009396623643 0.010118903559 0.025884528883 
0.01972061126 0.010925896418 0.010658509654 0.011337620548 0.0063521301579 0.0057489656099 0.0069106903896 0.0061857409885 0.0055850302712 
0.0033348802058 0.0030230308355 0.0029481603752 0.0030822703774 0.0031479083938 0.0027649601082 0.0023801456678 0.0021448704461 0.0030567749492 
0.0031554144979 0.0036010969225 0.0031629978024 0.0025039725005 0.0063632632633 0.0081569250829 0.0054887923185 0.007936046439 0.0091267397702 
0.01189039503 0.011585646878 0.0046123845061 0.0056130183769 0.0082766981574 0.010867716953 0.0098674480235 0.0078531210338 0.0048485489153 
0.01110459363 0.018677217055 0.0095499729867 0.0092333929495 0.0096516092766 0.0092343299941 0.0096519966174 0.0076462015006 0.0065924266537 
0.0077494663206 0.0073059136322 0.0091839371645 0.0083246562934 0.0081234681654 0.0094900513469 0.0079756005524 0.017402106853 0.0094781601709 
0.010406447634 0.0083815542255 0.0075068511788 0.0077919327783 0.022171094499 0.019396503284 0.017847513813 0.017507425103 0.027121738485 
0.0085815029211 0.0086155110381 0.0093591153266 0.0098399215766 0.0091196624656 0.008422432743 0.0084260422833 0.0084738370952 0.016005973937 
0.016602870188 0.016460897701 0.0083202762078 0.0082712525205 0.0084437547221 0.024346646056 0.016322594193 0.024661658345 0.016107522716 
0.016118097812 0.0080646433699 0.016150035608 0.0080054836076 0.0080004294255 0.007977174482 0.007944109284 0.0079387788514 0.0079446144315 
0.0092935898671 0.01589327913 0.014112429884 0.007937180985 0.007970457795 0.0079903610207 0.0079802892352 0.0080260760404 0.008011555042 
0.015850559764 0.016259885232 0.0080804880577 0.0081074054357 0.01385430544 0.035823360134 0.015950091159 0.007981280517 0.016016432726 
0.015945864373 0.015890933447 0.031793877922 0.031814272261 0.0080412249945 0.0079468624359 0.0079917774042 0.0080002402271 0.015968755043 
0.015943878996 0.0079570335132 0.0079416284245 0.023886760417 0.0080049583322 0.016010850397 0.01613417094 0.008071549082 0.0080837739719 
0.0080887082195 0.0080898003455 0.0080645830019 0.0073774664826 0.0079359391199 0.0076301158797 0.0077474937697 0.0081211237333 0.0073913358518 
0.0094031329824 0.015970890305 0.016644544043 0.0090662310503 0.010798525709 0.016455858807 0.032561443752 0.024588008463 0.032467533108 
0.016323868188 0.0081502918777 0.0080775432549 0.0081001523096 0.0082731909207 0.0082641782067 0.0083010340095 0.0082861631579 0.0083145822459 
0.016658657067 0.016632216951 0.0084904658309 0.0083730968322 0.0083711124908 0.0084194132039 0.0084169257954 0.0084596224854 0.007343898958 
0.0073580262801 0.0079662700434 0.009362278571 0.0084954753216 0.0085427510792 0.0085587383108 0.014979437717 0.01210746042 0.0095306881375 
0.010456968955 0.0098051711727 0.0090361873153 0.0090072716125 0.0091494282218 0.0098078811941 0.010864512174 0.0091381688556 0.010450644955 
0.010802840872 0.012070779454 0.018481099715 0.010586252674 0.0098094993323 0.0077445202282 0.013096518254 0.013626467974 0.0066728343589 
0.0084283477826 0.0089544658268 0.0084988766398 0.0086107987223 0.0085919195223 0.0097064512002 0.010254859913 0.013252841484 0.0075873569558 
0.0067049751217 0.0063677598048 0.0082255252604 0.0073515388059 0.0079654661589 0.0078792944007 0.0078044788752 0.0096729460162 0.009300153026 
0.0072767485973 0.010327861112 0.011475123521 0.0059663382917 0.018275904152 0.0079087680762 0.0051831796913 0.0072777068005 0.0093335841197 
0.010338771961 0.0077782927445 0.0078075202072 0.0070321876531 0.0082736971003 0.0068896019616 0.0085950284582 0.0087470586776 0.0085588731334 
0.0069189431237 0.0077477069623 0.009091530694 0.0096164678863 0.0091404556918 0.010085474588 0.0091305092868 0.008439375901 0.0089272797672 
0.0086582195268 0.0083540223044 0.0080203123288 0.0084221777313 0.015968628597 0.016615972414 0.016632074793 0.0083294152044 0.0083154415788 
0.0083765442825 0.008330700734 0.0083460870607 0.0083431387302 0.0083610859922 0.00843247065 0.0084267903366 0.0084139869809 0.016663363912 
0.016533963187 0.016648188858 0.0083793613371 0.0083985918363 0.0083946649733 0.0083658358002 0.0083437708167 0.0083091145269 0.0083043024434 
0.0082769538429 0.0082927868751 0.0082695341194 0.0082633097884 0.0082682694098 0.0082326914877 0.0082079682574 0.0082238500349 0.0081525707288 
0.0081542685049 0.0081414902858 0.0081024170699 0.024265912996 0.024102792238 0.008028222881 0.0095198360348 0.0087852729404 0.0091935365535 
0.0080600029456 0.0080375832266 0.0080953198204 0.008099703247 0.0082571152545 0.0066321413376 0.0087784325546 0.0090722528836 0.0066757039265 
0.008894340929 0.010202964469 0.0088253480162 0.0088208065673 0.0079247885816 0.0079304507727 0.0079545663334 0.0074302824263 0.0072662966323 
0.0073903853519 0.0079033656313 0.0079169337206 0.0079575653754 0.015838394131 0.02380728412 0.023976359287 0.0079234430568 0.0080473315843 
0.023815577613 0.015823381606 0.015841577158 0.0079313169525 0.023829481703 0.031785975387 0.023804448705 0.016017894796 0.0080218498253 
0.0081018881403 0.0081303971876 0.016245701822 0.016175926117 0.016359132299 0.0081523025765 0.0082295486151 0.016284976625 0.016339132987 
0.016305173543 0.008166189425 0.0081855585814 0.0082264353887 0.008238106313 0.0083087757707 0.008304403946 0.0082419437251 0.0082402083909 
0.0083309122815 0.016780410877 0.016785538784 0.0084344129851 0.0084369860398 0.0084724298001 0.0084150881196 0.00842449921 0.0083636611519 
0.016637052334 0.016556180769 0.0083337144763 0.0083350709818 0.0083951185535 0.0084452988544 0.0084594366253 0.0083084579515 0.016799377493 
0.015977895334 0.016809722979 0.0082702520848 0.0083046442911 0.0093033045587 0.008083640038 0.0079013012214 0.0083160033077 0.0082493579873 
0.0082659340077 0.0081822387089 0.0081393879051 0.008212370287 0.0081766968196 0.0081547500995 0.0081751235964 0.0081163226341 0.016459921986 
0.0075767165153 0.0080670217591 0.01538822852 0.024021053606 0.023989381513 0.0081632444776 0.0080784634774 0.0080357671844 0.0080028293669 
0.0079646141521 0.0079716480689 0.0079852608362 0.0080376707664 0.0080122157783 0.0080959540027 0.0080004602813 0.0078588485041 0.0082539785729 
0.007929634591 0.0075930729225 0.0079390038246 0.0074971844577 0.0079160441225 0.0079081871609 0.0079485934761 0.0079367671954 0.0079357027093 
0.0079917717371 0.0080320852622 0.0080221335621 0.0080675820847 0.0080855881054 0.0080786132619 0.0081024855449 0.008079795523 0.0080883769649 
0.0080214483549 0.008030805675 0.015930203816 0.016043686089 0.018400825928 0.016778893943 0.018772098272 0.0088080142679 0.0088325896674 
0.0074526363272 0.007617379681 0.0071178915581 0.0071037596058 0.0082068242502 0.0081612189393 0.0081475624685 0.00815227502 0.025847634604 
0.0088646066027 0.0088903277114 0.027465594432 0.052387631881 0.019105898053 0.018364947187 0.016537501621 0.010006173793 0.0096429140803 
0.010423892847 0.0081271970606 0.030829492133 0.0094128922394 0.0084844231024 0.048889045885 0.012614205422 0.01097616868 0.047051298999 
0.036580270477 0.018359752249 0.015668650878 0.016597181979 0.016610349868 0.0099120826895 0.0091414554516 0.0078102192647 0.014573867335 
0.01793819886 0.015211810581 0.019204401935 0.016702176219 0.013813240467 0.0090079108402 0.009488409808 0.03967653108 0.018890039652 
0.025790583006 0.019218320553 0.0082374206529 0.0081877461974 0.0082306367999 0.016329440487 0.031236201863 0.0080980603377 0.0095400211529 
0.010093072705 0.019848601751 0.01068661328 0.0098069334091 0.013637878153 0.015365487548 0.016205614304 0.015221698239 0.013444041819 
0.015937130026 0.0095430168749 0.0095659813538 0.011284462305 0.011303143081 0.012505553024 0.011967042813 0.017433678126 0.008546625719 
0.021855342179 0.028276958824 0.020837996232 0.030954623732 0.013509593085 0.015285893411 0.0139854326 0.011841674668 0.014594420877 
0.008720969773 0.010693093336 0.011866958686 0.019067679751 0.017733238659 0.020366862698 0.0097690131796 0.0088966184441 0.0090007182816 
0.012253467524 0.0123560701 0.01007636159 0.014850387568 0.021034862753 0.021476898747 0.0085541044639 0.0086965935098 0.0067693533717 
0.0082853784788 0.029068177065 0.012973931783 0.011013269769 0.010984256033 0.0084285418571 0.0064781905904 0.0075104140003 0.0078115471408 