# vtk DataFile Version 4.2
vtk output
ASCII
DATASET POLYDATA
POINTS 19508 float
13.4218 -13.9207 1.59229 13.3513 -13.8712 1.51845 13.4498 -13.9068 1.44589 
13.5755 -14.0254 1.61187 13.5038 -13.9622 1.63667 13.5316 -13.9763 1.54166 
13.4505 -13.9537 1.70047 13.323 -13.9243 1.70231 13.3541 -13.973 1.80228 
13.2352 -13.959 1.80974 13.1748 -13.9006 1.75807 13.2685 -13.8855 1.64213 
13.1168 -13.8139 1.66526 13.2105 -13.8141 1.55135 13.0742 -13.7271 1.58433 
12.9997 -13.7157 1.69498 12.9394 -13.5963 1.63879 13.1764 -13.7279 1.41836 
12.9865 -13.5904 1.52432 13.1327 -13.6565 1.34452 12.8438 -13.4584 1.67162 
12.8992 -13.4645 1.54512 12.7861 -13.33 1.67025 12.7397 -13.2061 1.67158 
12.7821 -13.2038 1.54572 12.832 -13.3305 1.54496 12.7944 -13.4596 1.79515 
12.8683 -13.5918 1.78503 12.8018 -13.5817 1.9184 12.8754 -13.7088 1.92136 
12.8119 -13.706 2.04467 12.7433 -13.5808 2.04483 12.7522 -13.7059 2.16931 
12.8305 -13.8341 2.17085 12.7706 -13.823 2.28324 12.8511 -13.9431 2.28346 
12.7772 -13.9015 2.38911 12.7066 -13.8068 2.41915 12.7509 -13.9388 2.52766 
12.681 -13.8312 2.54422 12.7304 -13.9562 2.6414 12.6599 -13.8433 2.6697 
12.6949 -13.9418 2.78446 12.6242 -13.8066 2.79735 12.6262 -13.8304 2.91777 
12.5731 -13.6988 2.89022 12.5779 -13.6943 2.77352 12.5936 -13.7064 2.66969 
12.5525 -13.5947 2.66985 12.5712 -13.5918 2.54468 12.622 -13.7151 2.54368 
12.5996 -13.5904 2.42672 12.5636 -13.4724 2.41301 12.5948 -13.4715 2.30514 
12.6497 -13.5985 2.28831 12.6584 -13.7172 2.41924 12.698 -13.7062 2.29393 
12.6885 -13.5807 2.16929 12.6478 -13.4714 2.16062 12.6877 -13.4553 2.0446 
12.7399 -13.4553 1.92002 12.6912 -13.3302 1.92001 12.649 -13.3377 2.03785 
12.6537 -13.2057 1.91753 12.6962 -13.2047 1.79515 12.739 -13.3302 1.79531 
12.7019 -13.0796 1.67279 12.6627 -13.0795 1.79512 12.6751 -12.9545 1.66991 
12.6375 -12.9544 1.79499 12.6224 -13.0833 1.92248 12.6094 -13.2146 2.05042 
12.5839 -13.086 2.04463 12.5999 -12.9544 1.91972 12.5652 -12.9543 2.04456 
12.5474 -13.0794 2.1695 12.5363 -12.9541 2.16957 12.5193 -13.0792 2.29452 
12.515 -12.9538 2.29472 12.5005 -13.0513 2.41967 12.5057 -12.9368 2.40336 
12.5015 -12.9532 2.51762 12.5184 -12.8282 2.42024 12.5214 -12.8287 2.54525 
12.5044 -12.9577 2.65555 12.5272 -12.8285 2.67068 12.5075 -12.9448 2.79071 
12.533 -12.8283 2.79603 12.5028 -12.955 2.91833 12.5137 -12.8265 2.92265 
12.5068 -12.9456 3.04413 12.4958 -12.8281 3.04481 12.5003 -12.949 3.16817 
12.4978 -13.0784 3.14296 12.4956 -13.0912 3.28448 12.4814 -13.203 3.19873 
12.4577 -13.2057 3.42283 12.4831 -13.0885 3.42631 12.4677 -13.2151 3.55585 
12.4813 -13.0856 3.54765 12.5047 -13.1874 3.64641 12.5061 -13.0892 3.63214 
12.5382 -13.1455 3.7037 12.5259 -13.055 3.66998 12.5917 -13.1034 3.75793 
12.5564 -12.9609 3.67972 12.5185 -12.9958 3.62871 12.5401 -12.906 3.61514 
12.4914 -12.973 3.59377 12.4837 -12.8905 3.56844 12.5095 -12.833 3.58039 
12.4741 -12.8278 3.52478 12.4938 -12.7551 3.53577 12.5526 -12.7722 3.57009 
12.5412 -12.7053 3.53691 12.4937 -12.6942 3.50449 12.5381 -12.6477 3.49353 
12.5983 -12.6397 3.51443 12.6229 -12.7095 3.56869 12.7036 -12.6361 3.52015 
12.6194 -12.5125 3.44225 12.5047 -12.5645 3.43731 12.5304 -12.4962 3.40803 
12.6206 -12.3714 3.36821 12.7451 -12.4357 3.40439 12.6946 -12.2931 3.3379 
12.5886 -12.3007 3.32905 12.4869 -12.3845 3.33898 12.5123 -12.3312 3.32206 
12.4538 -12.3493 3.28618 12.4735 -12.2833 3.27909 12.5274 -12.2434 3.28724 
12.4557 -12.2526 3.2461 12.428 -12.3009 3.22777 12.412 -12.24 3.19149 
12.3924 -12.3326 3.1715 12.3919 -12.2567 3.11381 12.4256 -12.1625 3.17936 
12.4002 -12.159 3.11723 12.441 -12.0738 3.16173 12.3959 -12.0823 3.09905 
12.4224 -12.0186 3.10048 12.3764 -12.0307 3.05391 12.3624 -12.1101 3.04171 
12.3747 -12.2008 3.08207 12.3645 -12.2183 3.00697 12.379 -12.3112 3.04982 
12.375 -12.2905 2.98707 12.3594 -12.1921 2.93833 12.3782 -12.2651 2.88189 
12.3791 -12.1912 2.78261 12.4102 -12.3367 2.80345 12.3947 -12.3774 2.97497 
12.4285 -12.4622 2.92312 12.4606 -12.4531 2.79387 12.4638 -12.5787 2.91923 
12.437 -12.5746 3.03699 12.4081 -12.4624 3.05255 12.4213 -12.5581 3.12724 
12.4393 -12.6742 3.15422 12.4278 -12.6384 3.242 12.417 -12.5469 3.21199 
12.4262 -12.6028 3.29086 12.4224 -12.5355 3.27987 12.415 -12.4736 3.23618 
12.4365 -12.477 3.31782 12.4401 -12.4139 3.29503 12.411 -12.3992 3.23363 
12.4006 -12.4496 3.16326 12.3886 -12.3753 3.09906 12.4852 -12.4413 3.36329 
12.4703 -12.5147 3.38169 12.4448 -12.5534 3.34624 12.4638 -12.5898 3.40302 
12.4891 -12.6346 3.47038 12.4656 -12.6615 3.4383 12.4444 -12.6332 3.37302 
12.4486 -12.7055 3.40957 12.4672 -12.7466 3.47991 12.4545 -12.7707 3.43322 
12.4447 -12.7632 3.36211 12.456 -12.8442 3.40702 12.4675 -12.8884 3.49724 
12.4755 -13.0084 3.45571 12.4571 -12.8413 3.31629 12.4829 -12.9583 3.30957 
12.4663 -12.8131 3.1878 12.4431 -12.742 3.26335 12.464 -12.6973 3.04439 
12.4979 -12.6995 2.91686 12.5021 -12.5782 2.79595 12.5295 -12.7035 2.79674 
12.5324 -12.5795 2.67155 12.5419 -12.7036 2.6714 12.5554 -12.5793 2.54694 
12.5411 -12.7035 2.54583 12.5661 -12.5796 2.42059 12.5423 -12.7038 2.42019 
12.5653 -12.5786 2.29504 12.5422 -12.7035 2.29524 12.5228 -12.8284 2.29504 
12.5472 -12.703 2.16976 12.5358 -12.8287 2.1697 12.5629 -12.703 2.04415 
12.5579 -12.8289 2.04444 12.5881 -12.7033 1.91904 12.5875 -12.8291 1.91942 
12.6191 -12.7036 1.79424 12.6218 -12.8293 1.79467 12.6574 -12.8293 1.66964 
12.6526 -12.7036 1.66915 12.7433 -13.0797 1.54498 12.7125 -12.9609 1.55114 
12.6934 -12.5936 1.56018 12.6879 -12.7033 1.54367 16.6146 -15.6314 1.67031 
16.3645 -15.5651 1.57306 16.6144 -15.6187 1.42032 17.1145 -15.7388 1.67025 
16.9895 -15.6974 1.42026 17.2397 -15.7343 1.29526 17.2397 -15.7599 1.67024 
17.6208 -15.8278 1.67242 17.4897 -15.7894 1.42016 17.7464 -15.857 1.71433 
17.7169 -15.8421 1.50368 17.8792 -15.895 1.65562 17.8597 -15.8849 1.77845 
17.9603 -15.9299 1.67818 18.0203 -16.0013 1.62624 18.0488 -15.937 1.77078 
18.3618 -16.0136 1.68675 18.2396 -16.0472 1.67025 18.2396 -16.0788 1.62807 
16.2513 -15.5521 1.93219 16.2393 -15.5321 1.54526 17.1145 -15.7481 1.79531 
16.9773 -15.7223 1.78333 17.3649 -15.7901 1.79531 17.4895 -15.815 1.79524 
17.6144 -15.8484 1.92021 17.7397 -15.8698 1.92027 17.8658 -15.892 1.91917 
17.9622 -15.9106 1.80136 17.992 -15.913 1.90823 18.1029 -15.9283 1.90392 
18.1371 -15.9708 1.76412 16.1142 -15.5122 1.92032 15.989 -15.463 1.64244 
16.114 -15.4976 1.54524 15.6312 -15.3387 1.65358 15.4893 -15.2753 1.4202 
15.6143 -15.3171 1.32296 15.3639 -15.2384 1.64239 15.1017 -15.1292 1.65821 
15.3638 -15.2319 1.51735 14.2382 -14.6471 1.66985 14.2371 -14.6434 1.41961 
14.362 -14.7353 1.64246 14.1176 -14.5533 1.57312 14.0873 -14.5284 1.81697 
14.0177 -14.4665 1.5277 13.7235 -14.1816 1.71783 13.6781 -14.1317 1.59521 
13.8646 -14.327 1.54519 18.2396 -16.0068 1.73275 18.1281 -16.03 1.677 
18.359 -15.9667 1.80294 18.2396 -15.9538 1.8403 18.3661 -15.957 1.92258 
18.2396 -15.9399 1.92025 18.2396 -15.9419 2.04525 18.115 -15.9252 2.04542 
17.9896 -15.9136 2.04527 17.9898 -15.9193 2.17046 18.1151 -15.9347 2.1708 
17.8645 -15.9156 2.29539 17.8644 -15.9068 2.17028 17.7394 -15.898 2.29525 
17.7393 -15.889 2.17021 17.4896 -15.8552 2.29534 17.4899 -15.8417 2.17041 
17.6145 -15.8564 2.04532 17.3648 -15.8098 2.04525 17.3647 -15.8205 2.17033 
17.1144 -15.7587 1.92024 17.1144 -15.7887 2.2953 16.9894 -15.7538 2.17032 
16.9892 -15.736 1.92021 16.8524 -15.7233 2.15843 16.8811 -15.7116 1.90353 
16.7393 -15.6909 2.073 16.756 -15.7074 2.27883 16.8643 -15.7469 2.42031 
16.4896 -15.6488 2.42043 16.7277 -15.7243 2.53348 16.4897 -15.6626 2.54552 
16.6147 -15.7148 2.67063 16.228 -15.6077 2.65905 16.2397 -15.5903 2.5177 
15.9895 -15.5219 2.54547 15.8644 -15.5041 2.67069 16.1142 -15.6081 2.79575 
15.7393 -15.4938 2.79558 15.6152 -15.4187 2.67103 15.8525 -15.4766 2.53368 
15.6153 -15.3948 2.54575 15.4896 -15.3769 2.67099 15.4896 -15.3528 2.54567 
15.7397 -15.4269 2.44815 15.3642 -15.2899 2.42051 15.3642 -15.2771 2.29555 
15.7392 -15.4053 2.17034 15.8644 -15.4645 2.39261 15.9895 -15.5067 2.42043 
16.1146 -15.5238 2.17035 16.3526 -15.6004 2.28335 16.4895 -15.6391 2.2953 
16.6143 -15.6572 2.04525 16.7395 -15.6609 1.67037 16.4895 -15.6233 2.0453 
12.7726 -12.3026 1.67635 12.7851 -12.3739 1.54547 12.7153 -12.4231 1.66777 
12.9143 -12.1929 1.54724 12.8692 -12.2717 1.53696 12.831 -12.2247 1.66314 
16.1144 -15.5178 2.04528 19.2398 -16.0684 1.79541 19.1147 -16.0428 1.67037 
19.3645 -16.065 1.54529 19.4896 -16.093 1.6704 19.7394 -16.1391 1.79509 
19.4891 -16.1251 1.92002 19.7393 -16.127 1.67014 19.3644 -16.1205 2.04502 
19.2398 -16.0823 1.92054 20.2401 -16.1714 1.7954 20.1148 -16.1598 1.79537 
20.3642 -16.1649 1.4201 20.4887 -16.1917 1.66839 20.4892 -16.2057 1.79533 
20.3594 -16.1913 1.79521 20.6116 -16.2001 1.67208 20.6097 -16.2136 1.79532 
20.7396 -16.2031 1.66984 15.9893 -15.4715 1.89245 15.7396 -15.3832 1.79527 
15.6142 -15.345 1.89244 15.3639 -15.2694 2.17038 15.3523 -15.247 1.9084 
20.7396 -16.2181 1.79524 20.8649 -16.2004 1.66993 20.8648 -16.2175 1.79495 
20.9906 -16.1881 1.66951 21.1153 -16.162 1.66987 21.0023 -16.2087 1.80656 
21.2522 -16.1837 1.90862 21.1428 -16.1808 1.79526 21.3521 -16.1016 1.6827 
14.1705 -14.6048 2.01745 13.9541 -14.4141 1.85384 18.8647 -16.0227 1.79532 
18.7395 -16.0082 1.79532 18.8646 -16.0159 1.67032 14.8771 -15.0337 1.82293 
14.864 -15.0064 1.51756 15.1141 -15.1165 1.39253 14.7228 -14.9429 1.68711 
14.6261 -14.8945 1.78351 14.6135 -14.8791 1.51742 13.8507 -14.3141 1.79941 
13.8354 -14.3029 1.89935 13.7058 -14.1828 1.90079 13.6682 -14.1295 1.80732 
13.6545 -14.1532 1.94839 13.618 -14.1057 1.89279 13.5601 -14.1187 1.96382 
13.4874 -14.0635 1.921 13.6093 -14.0797 1.82166 13.5278 -14.0293 1.82498 
13.5879 -14.0487 1.74352 13.4829 -13.9762 1.77461 13.5295 -13.9937 1.69719 
13.6395 -14.0897 1.68763 14.3621 -14.7293 1.3925 14.4883 -14.8113 1.57303 
14.4893 -14.8162 1.82307 13.4198 -14.0172 1.85929 13.2725 -14.0122 1.87722 
13.381 -14.0817 1.95788 13.4737 -14.1309 2.02543 13.3564 -14.1606 2.0579 
13.2406 -14.0812 1.97797 13.2427 -14.2 2.12872 13.1111 -14.0643 2.04724 
[...]
CELL_DATA 39012
FIELD FieldData 1
Area 1 39012 double
0.0070313316098 0.0041839615494 0.0041583672569 0.0073067192761 0.0070911142834 0.0066826343358 0.0069602315337 0.0066291547619 0.0099204338801 
0.0082428920937 0.0089158148018 0.0080935846844 0.0097108606747 0.01280142704 0.020114735954 0.010638499437 0.0087386567368 0.010111731667 
0.0092793464782 0.00981524087 0.010680723386 0.01058375644 0.0099187247029 0.0097256047581 0.0096470784855 0.010135238579 0.0091316614458 
0.008718541491 0.0081299526892 0.0076878469707 0.008802174978 0.0083850781556 0.0075258764919 0.0085004536476 0.0092099967062 0.0094879243055 
0.0093550485017 0.0082457293585 0.0070702993031 0.0065395603638 0.0062096253107 0.00753005965 0.008530876203 0.0080602720718 0.0075206132225 
0.0069662676777 0.0098097153904 0.010009364872 0.0077919157448 0.0066925256774 0.0074623618242 0.0093912884293 0.0073609495887 0.0072139953155 
0.0092095955885 0.0091579267318 0.0089763993341 0.0077735033327 0.0081516776286 0.0084034173671 0.0087964340955 0.0086269552491 0.0087634399674 
0.0085925529737 0.0082980301989 0.0082116494416 0.0083203140203 0.0085229213847 0.0084181249156 0.0088605105865 0.0084053482223 0.0083822957583 
0.0086117983373 0.0086288231134 0.0080680776526 0.0080581856079 0.0079641060834 0.0079274311866 0.0063876331689 0.0064161680938 0.006389453288 
0.0078833023166 0.0087531424879 0.0082267546704 0.0087662939941 0.0074781533676 0.0076402510747 0.0082600417095 0.0080933456062 0.0072852952414 
0.0073311278551 0.0080824825184 0.0093215103136 0.0085315647526 0.01297491755 0.0085380845574 0.008018652034 0.007912787162 0.0064183770286 
0.0043060246231 0.0035173456417 0.0025439633528 0.0041848039014 0.0059053744186 0.0026251654122 0.0029657566796 0.0021107731438 0.0029012259421 
0.0023341358302 0.00202246629 0.0024736938887 0.0025781750438 0.0022021443606 0.001816972898 0.0018069281019 0.0022960227937 0.0034875157223 
0.004656982569 0.007712890471 0.0082387135607 0.0038025114719 0.0073362454788 0.0099650270011 0.0079504092465 0.0043496916147 0.0055361779426 
0.0018563830272 0.001975302567 0.0022233204838 0.0025241500602 0.0016365883486 0.0014070168653 0.0019225888926 0.0026579202132 0.0035592252239 
0.0032478274939 0.0032969332367 0.0030409091373 0.0030473982203 0.002519999845 0.0020539692936 0.0024011208596 0.0035990050901 0.0038105525856 
0.0039233550371 0.0024989600179 0.0027696911537 0.0046571956644 0.0058265166949 0.0067471049653 0.0081162859848 0.0087974881664 0.0084417473466 
0.0081232452191 0.0072984636096 0.0075497812492 0.0051147217154 0.0056089227728 0.0056686081682 0.0040808622339 0.0027872031644 0.002357773706 
0.00236290184 0.0025434219232 0.0026567406765 0.0024996211905 0.0022503188537 0.0032546865006 0.0027289712415 0.0040068102483 0.0040937669157 
0.0046179297621 0.005465882965 0.004101003168 0.003458581581 0.002442005679 0.0026308089211 0.0024757277392 0.0015743238756 0.0022268313309 
0.0019706762766 0.0021997346235 0.0022456369515 0.0021554349869 0.0018810128648 0.0020071247081 0.0019894305212 0.0022924186461 0.0024926346282 
0.0018711126241 0.002251232811 0.002740636605 0.0041805801233 0.003381341015 0.0063799873938 0.0071362270605 0.0075946051547 0.0074353596845 
0.0089788379366 0.0066227238134 0.0078353160955 0.010042890568 0.0057849947523 0.0066252610587 0.0083557962047 0.0097763613746 0.0088584809584 
0.0082394353003 0.0080668276806 0.0079449348421 0.0079592039811 0.00820011094 0.0078372371483 0.0078616770187 0.007884349984 0.0078496294565 
0.007896197801 0.0079268109919 0.0079446183647 0.0079621950558 0.0079389701597 0.0079354843766 0.0079139694426 0.0079173108335 0.0079361966587 
0.007952235718 0.007916314856 0.0079882203481 0.0080135318766 0.0079756676094 0.008039876012 0.0080806258556 0.008067770987 0.0080891600669 
0.0081333590572 0.0081427048022 0.008208027774 0.0081913566148 0.0081764197262 0.008827131699 0.0079446254965 0.0071802355301 0.032218346542 
0.039847709821 0.023858422378 0.048762313283 0.012919910425 0.0078585956283 0.00682913126 0.0032517141785 0.02484097168 0.0087419473717 
0.0079598813068 0.015918658474 0.024112956404 0.0078425657342 0.010722968211 0.021541719976 0.013118163091 0.01216142308 0.0090208626701 
0.0073533678202 0.0070016633381 0.0052934463989 0.007618514074 0.0065818699244 0.024549253597 0.02293430166 0.017799028474 0.019061115105 
0.017026053106 0.01824558221 0.0041682953272 0.0046032194386 0.0076231805566 0.0069282529688 0.0066787242713 0.0073257563862 0.0051801435734 
0.0079787933913 0.0078581099438 0.0096141552484 0.0089130120399 0.0078909689233 0.0079362061958 0.0079408234428 0.0079024530322 0.0079216330148 
0.0079200360755 0.015892961153 0.015760430295 0.015884835903 0.015946478047 0.015904485286 0.015929185625 0.015927903656 0.015919522285 
0.0079690726386 0.015924255207 0.031817561606 0.047737693665 0.02397594575 0.01595034949 0.0079758721164 0.017569738844 0.014370219484 
0.0074872286335 0.016095706206 0.011257236245 0.013830406758 0.027487785437 0.022047043715 0.015486461547 0.016358477161 0.024559016095 
0.018665622161 0.018421909995 0.023170888518 0.025900524546 0.025034337807 0.016923436974 0.018283759506 0.016016270124 0.008426192313 
0.0084417159434 0.0065005535973 0.023310468778 0.025031442935 0.05567587755 0.018335882931 0.0090302918495 0.0094716962093 0.0090536560206 
0.018303902667 0.038406358722 0.036460400502 0.017399532959 0.016222913453 0.018569844608 0.017950278597 0.026028816473 0.015414899797 
0.02429785874 0.008929078707 0.0061809152474 0.022048455107 0.024392404362 0.0089191316851 0.023700787977 0.023756246754 0.015801066757 
0.031869616533 0.023640495888 0.0083382816653 0.007863243008 0.0079346391022 0.032976025786 0.016389590785 0.019248590957 0.05510861307 
0.038295538854 0.055535416454 0.036853571063 0.037169239815 0.034216009345 0.0079139886608 0.0079677714328 0.0088463672076 0.019103040351 
0.027550613485 0.019679457622 0.0074857244618 0.0078880304452 0.043262261723 0.015273886547 0.0099454046169 0.016195311011 0.0064561088121 
0.0043045675906 0.0040685551028 0.0035778527827 0.0046604129859 0.0053389066856 0.0051709632497 0.0038695633938 0.0044212205516 0.004263055477 
0.0037718383821 0.0052949560664 0.0059816653212 0.003405545041 0.0063533328796 0.0066152870223 0.019004233309 0.018531335064 0.018548795212 
0.02385327819 0.0033552283637 0.0045164103835 0.0053841741939 0.0057243408443 0.0084830127255 0.0054840187023 0.0063393237358 0.0069354365002 
0.0087928567402 0.011064836167 0.013588146543 0.019865029219 0.011073843638 0.0041918631804 0.013709199612 0.014395317305 0.008503643687 
0.01640722541 0.012334587612 0.0087840244747 0.0086271609832 0.010516940192 0.0081070208411 0.0095600328874 0.0090333171226 0.0064044391834 
0.0075322110818 0.014839285815 0.010793616601 0.0076661113074 0.0090787398561 0.011865122007 0.01013924558 0.011278707588 0.0098785646429 
0.011300694478 0.006545767426 0.0075517180964 0.0099093838963 0.0096374207744 0.0092259170267 0.0090093194055 0.0091443718752 0.011491358502 
0.010861648389 0.0097559634023 0.0091832614 0.010887667407 0.0089779543338 0.0091551200109 0.0092269297177 0.016216691972 0.018256709476 
0.018797478957 0.0094175052669 0.0094615122591 0.0081057673119 0.016836512292 0.022753396829 0.013075420678 0.0099871975238 0.011553329616 
0.0073289820722 0.0073081677561 0.0063300688648 0.0068179318566 0.0056964300487 0.0040214879103 0.0038603127363 0.0071537853373 0.0044222432196 
0.0041526965311 0.0062768788453 0.0094272880038 0.0089304389632 0.0087499030892 0.0085376752366 0.010403538305 0.010653408739 0.0090040616459 
0.014850611227 0.011209517257 0.0085816187404 0.0090697797056 0.017946150271 0.016223985289 0.016951974178 0.016290265691 0.0090629068844 
0.0083272413658 0.0078027583174 0.0089231113992 0.010209651219 0.0061587751979 0.0055399885731 0.0036531199456 0.0035471058171 0.0054280663634 
0.0054696242104 0.0040825952546 0.0044456834916 0.0054942493511 0.0045364996672 0.0040173048059 0.0031605219752 0.0038895916123 0.0031359105201 
0.0039009489607 0.006148944422 0.004995813062 0.0043607873533 0.0032842407196 0.0050053571357 0.010943005785 0.0047058105369 0.0058982471208 
0.0039581846829 0.0058946579518 0.0050823342465 0.0035610454344 0.0035451129816 0.0036116725534 0.003152365731 0.0036488018145 0.0034425103957 
0.0041308755322 0.0037194487084 0.0049662285559 0.0043501025609 0.0047071002827 0.0048496018992 0.0069137398016 0.0065376965227 0.005144559459 
0.0035662859595 0.0053532029747 0.0062681382943 0.0048224463717 0.0043991487172 0.0056515941126 0.005186351825 0.0042615328347 0.0033918858125 
0.0024816194354 0.0050229118031 0.0051301138657 0.005532652016 0.0061122787067 0.0082490369603 0.0075791216879 0.0078973949597 0.0089755403314 
0.00807881901 0.0086002319625 0.0079456467924 0.0079067365956 0.0085519807843 0.0092254167632 0.0078147987133 0.007847229433 0.0078659490963 
0.0091197767995 0.0091577544957 0.0082831510577 0.0064272623334 0.0078273811139 0.0076141903705 0.008289590439 0.0076585175984 0.0082696613549 
0.0081816076095 0.0080673495433 0.0078854118417 0.0079416158285 0.014935397384 0.011869394067 0.0046640939913 0.0057390545977 0.005386944511 
0.0049425713838 0.0044658952125 0.0071847993966 0.0067648409199 0.0047427606255 0.0096420269884 0.0087191972726 0.007961629375 0.0083637542293 
0.0072092455921 0.0072888349549 0.0079970214471 0.0080242175156 0.0085531086822 0.0090643051697 0.0079597424542 0.008321051313 0.0087029553062 
0.0063423044957 0.0075189305461 0.0066309754184 0.0076252667198 0.0076076077948 0.008711525644 0.0087434630673 0.0092042277698 0.011065046315 
0.01147788894 0.01061940593 0.0098902629521 0.0072864760595 0.0071264854001 0.010192238415 0.0099875313501 0.0095855960554 0.0077077459967 
0.009540780481 0.0081902195673 0.0077308077608 0.0073657476484 0.0072044464957 0.0083538121603 0.0093347975449 0.006947005176 0.008001404117 
0.0079242802028 0.0095346730654 0.0065031848766 0.008578881501 0.0067705046602 0.0066479122584 0.0042146191442 0.0056178617478 0.0053459562601 
0.0025658361057 0.0032431894083 0.0038856787745 0.0036044997737 0.0033603887313 0.0021636347791 0.0033197877954 0.0024587256007 0.002726783124 
0.0053665406388 0.0072997186045 0.010167083219 0.011903778148 0.0070754312841 0.0031103760863 0.0029995411011 0.0036334360836 0.002448723629 
0.0018934543327 0.0019105346688 0.0039633767552 0.012173453955 0.0021881695633 0.0050435016551 0.003280056753 0.002976689973 0.0033304045549 
0.013509867132 0.014521927846 0.006067541912 0.0081381461262 0.010379473262 0.011215655871 0.010526722404 0.01006671447 0.0089435826407 
0.0089507909131 0.0094478386056 0.018970566254 0.020385005014 0.0090633872466 0.0088425161601 0.0070968339005 0.0085846731083 0.009567469351 
0.010129994383 0.017516221647 0.017807133924 0.0089860370593 0.008875141181 0.0082608731846 0.0079967425144 0.0079356530731 0.0078370146972 
0.01079226062 0.0092603638931 0.0084381980031 0.005494182589 0.0071527137875 0.0070168952527 0.0049786604796 0.0052067221871 0.007324023996 
0.0081194319859 0.012737234067 0.0088512094514 0.028295151925 0.040349572209 0.01068251671 0.0098910268763 0.0091542711087 0.011669160528 
0.015961603963 0.0162390879 0.03302639042 0.024358464982 0.012902155353 0.0074087620584 0.0090787257922 0.0084223202751 0.0085087985927 
0.0085383890687 0.0091855814644 0.0080889955876 0.0094011125892 0.009038296622 0.0076832312959 0.010643609884 0.0061384029312 0.0073807726339 
0.0046971714531 0.0038795583438 0.0032786601912 0.004710774216 0.0054776680365 0.0049005183534 0.0035538643566 0.0022229596436 0.0019913447249 
0.0026789382122 0.0028583848183 0.0029525317363 0.0047026506731 0.0045646984362 0.0030582962415 0.0031007188932 0.0028713254134 0.0027952310196 
0.0028250003276 0.0021207666529 0.002136178315 0.002374408298 0.0033456904219 0.0036143466526 0.0043774750112 0.0039983918738 0.0034539891819 
0.0029406447088 0.0035386908677 0.0054935832074 0.006385040011 0.0061658425768 0.009281303483 0.0072098320018 0.0078473889699 0.0068262184994 
0.00876082207 0.0074064841755 0.0054794603626 0.0051312059159 0.0052470256256 0.0049580555863 0.0039756250651 0.004282398675 0.0041572105926 
0.004014723498 0.0034641071236 0.0034304231326 0.0024429872671 0.0024988979009 0.0030324440807 0.0046135045885 0.0062449205109 0.0051972132937 
0.0073426523363 0.0070442833894 0.0050459781837 0.0062417749244 0.0053761052129 0.0059942161708 0.0075173685481 0.0089848494288 0.009712146515 
0.010368334442 0.0095877928059 0.0081720179515 0.013480506396 0.012363671409 0.008091989677 0.012282331683 0.0086409000037 0.0094245843004 
0.0088318059884 0.0088363958647 0.0095992391225 0.0088890472405 0.0083365747357 0.0075646025134 0.010290857249 0.0075785954072 0.0067753435916 
0.0093894586887 0.0075594422276 0.0097150471518 0.02451741793 0.016293710999 0.0062552237651 0.0075545829488 0.0094594489775 0.010525817947 
0.0069208336001 0.01601333351 0.01950750282 0.0094922863002 0.0075681899351 0.010700360665 0.0094567088951 0.0093763460483 0.0083427724308 
0.0082732931499 0.0084100508542 0.0085936769455 0.0084199968954 0.0085778737715 0.009206152046 0.0096078985959 0.0080677762557 0.008122304361 
0.0090404959209 0.012757835077 0.01428012909 0.0085859509757 0.0086475970207 0.0093437187857 0.0080834712802 0.0089689774598 0.0098232489397 
0.0082164320469 0.0081320451067 0.0082439689897 0.0066310800576 0.0075885709931 0.0076902531864 0.0090194960367 0.025699211573 0.045863394035 
0.0329857893 0.023179114687 0.017830282146 0.012127899403 0.0079126634609 0.015817301113 0.03156791643 0.055007880417 0.031799575358 
0.015819076387 0.018932157946 0.0087187359472 0.009200350504 0.009559921827 0.0076087696359 0.011185706534 0.0082823419978 0.0084609463139 
0.010344216302 0.0090403097755 0.0088391877727 0.0096887183407 0.010469928354 0.010576580079 0.009265720597 0.0093105497778 0.008520749016 
0.0085750995849 0.0086240806689 0.0087702983503 0.0086838392745 0.010085143406 0.0098983454882 0.0080774291815 0.006832798573 0.0074985732715 
0.0056939111404 0.0058411190555 0.0081004380937 0.0057448950447 0.0025203639431 0.0063247492161 0.0054380049267 0.0052178839018 0.0037794714958 
0.0034072337242 0.0026099356235 0.0027144316823 0.0030754294553 0.0034668563113 0.0032453796142 0.0032204519454 0.0030358403395 0.0033011435686 
0.0039879265719 0.0042892595704 0.0055220802113 0.0060559657542 0.0063493882095 0.0076559562403 0.010904663217 0.010117834452 0.0097496540227 
0.010143565625 0.0083459361416 0.0082914697699 0.0066926522792 0.0057324993666 0.0061512981699 0.0099042380728 0.0040910909663 0.0031108598041 
0.0037885393579 0.0065988517364 0.0054797010851 0.0026295095006 0.0016818956708 0.0029494385819 0.0033130137306 0.0061493129993 0.0060645743232 
0.0024323810847 0.0020536804227 0.0026975062754 0.0031511698673 0.0027574054192 0.0024713238624 0.0019896506835 0.0019322689339 0.0052625605567 
0.0026925449333 0.0047805170747 0.0031812724379 0.0024583189963 0.0021066885579 0.0033341991116 0.0051163507061 0.0053139764719 0.002834060861 
0.0032589939159 0.0034887193511 0.0064857744489 0.011401798163 0.0045936964249 0.003890733503 0.0055788792653 0.0058791436063 0.0065302882671 
0.010752746089 0.00768732142 0.0075113872064 0.006400624814 0.0075677983106 0.0071361937423 0.0054628375229 0.0079364072824 0.0069581736505 
0.0082798891627 0.008990063098 0.009096845335 0.010410807876 0.020715139351 0.0080200199363 0.0090113254833 0.0089556201334 0.0076536544364 
0.0055828733874 0.018613811611 0.0077965984639 0.0085456747534 0.0091474176345 0.0087531016544 0.0088032022373 0.0087966600096 0.0087402708603 
0.0086278625725 0.0087011252879 0.0086538244683 0.0085339979078 0.0085892549839 0.016101265448 0.01215937644 0.0090862431459 0.012173349199 
0.0095765705933 0.025104797894 0.023311091665 0.021243179172 0.017776363589 0.016163052393 0.017238861234 0.0083460908803 0.0083739286722 
0.010075054055 0.0093006418555 0.0083424422288 0.0083455040583 0.0083679592032 0.0090632558639 0.0096877836443 0.0081417648631 0.0081044002585 
0.0080952054794 0.0081829547478 0.0081792328457 0.0081845444269 0.0081838037487 0.0082915516158 0.0082663047295 0.0083079236615 0.0083117269787 
0.008294244298 0.016663589987 0.017057848208 0.016102431547 0.016887687481 0.0085523686161 0.0082307709719 0.0080164679192 0.0079639862486 
0.0080930969216 0.0079408506652 0.0079498409731 0.017712358343 0.016682874333 0.0298711652 0.0077269930716 0.0092175302324 0.0087395489683 
0.0095814539806 0.0079277662126 0.0079219708589 0.0068747267487 0.0079145184149 0.0082174311946 0.0049855026838 0.0080088785772 0.0075035465817 
0.013742113594 0.018559194019 0.0087712539231 0.0093638803513 0.010444385531 0.00887531034 0.0080550186924 0.0080754452592 0.0079982951091 
0.016596889034 0.016364298788 0.025054662143 0.016687004854 0.016757049349 0.016744052897 0.0083506174041 0.0083139414532 0.0082918394927 
0.0082608405147 0.0082609558865 0.0082133642313 0.008206446149 0.0081948174189 0.0081672195605 0.0081482533252 0.0081486398592 0.0081283187715 
0.0080817945451 0.0080719373977 0.008021895651 0.0079984199603 0.0079962497083 0.0079851959819 0.007976860836 0.015915082614 0.0079801565984 
0.007993279595 0.0064516170333 0.0065321806958 0.0064650375566 0.0079905457947 0.0091613351878 0.0091800226493 0.0089056146643 0.0073605098704 
0.0067851064623 0.0067231039289 0.0097429338451 0.018372112559 0.018931446832 0.018058899322 0.016734096712 0.0082554821687 0.0082151698802 
0.0092897301349 0.012754429215 0.0093143183191 0.010474599746 0.012314559544 0.022665575901 0.013203861923 0.0076484339001 0.0079838017741 
0.0086357706715 0.01110988054 0.0065596853026 0.0068580217024 0.0066694832 0.0055258763058 0.0025500333603 0.0022962200655 0.002378347093 
0.0027218109439 0.0022795986544 0.0021491402685 0.0021347030918 0.0029408640793 0.0028175254541 0.0027536024482 0.0034156721094 0.0049451540107 
0.0050143555773 0.0045538555681 0.0064326358175 0.0060698364881 0.0081062327342 0.007619017066 0.0094151377188 0.0083081776174 0.0066581363017 
0.0038967602622 0.0042965307604 0.0063935599601 0.0073678560623 0.0090900452074 0.010576759402 0.0079274892305 0.0076479080554 0.014005115301 
0.015936387064 0.014181569965 0.014041017445 0.0079156716601 0.0069313305651 0.0079192415692 0.0079673579433 0.0078676868759 0.0078605035183 
0.0078890169932 0.0078900223514 0.015745711548 0.015778613439 0.015841967329 0.0078952988784 0.0079078251598 0.0079432621488 0.0079087528445 
0.0079123654829 0.0079554873709 0.0079272393388 0.007950386687 0.0079900657834 0.0080102128004 0.0080169639545 0.008058726268 0.0081056955521 
0.0080846285489 0.0081300228167 0.0081330333822 0.0081613192521 0.0081592605313 0.0082144067612 0.0081897891007 0.0082429021241 0.0082948660082 
0.0082471825681 0.0082948770734 0.0083336916553 0.0082864965082 0.016716627984 0.033266060204 0.016666598589 0.0083670446905 0.033197666201 
0.016684605671 0.033275173309 0.01667283359 0.033352689384 0.024700991826 0.0082514465774 0.032600811469 0.014109692717 0.006583851968 
0.0073782253919 0.015015667316 0.016106344418 0.016230573032 0.024338845152 0.0080165346316 0.0079995853912 0.015981614591 0.015965880898 
0.016012657182 0.015928137465 0.007973199776 0.0079800039977 0.007973018867 0.01593710416 0.015866344957 0.015906614468 0.0045477873228 
0.005016736561 0.007808614499 0.0079630637236 0.011841533444 0.0087380241854 0.011958044695 0.016023196748 0.020024073589 0.021704576219 
0.0071388628848 0.0059572701743 0.016032750329 0.015966685765 0.015871730501 0.0079082192315 0.031412642772 0.015743041496 0.015766272734 
0.039315553571 0.023652650168 0.015878378938 0.015787678419 0.015792871524 0.0078980682294 0.0078908784747 0.015798158509 0.007903541491 
0.0079420523096 0.015908246982 0.015939728835 0.016005037206 0.016057907884 0.0080232901853 0.0080620788152 0.0080524501832 0.0080147754956 
0.0079790078265 0.0079352764889 0.0079033846106 0.023969234288 0.01583671238 0.0079277838606 0.01606881211 0.0079874018547 0.0088523622276 