# vtk DataFile Version 4.2
vtk output
ASCII
DATASET POLYDATA
POINTS 25711 float
13.2514 -15.0706 2.7558 13.2436 -15.0584 2.70516 13.2693 -15.1027 2.72014 
13.3024 -15.1267 4.11834 13.3141 -15.148 4.07971 13.3256 -15.1669 4.1227 
13.1708 -14.8882 4.51258 13.1949 -14.9295 4.54389 13.1751 -14.8943 4.57199 
12.9783 -14.5935 2.83867 12.995 -14.6233 2.81124 12.9985 -14.6283 2.85546 
13.3181 -15.1633 3.73517 13.3111 -15.1518 3.70033 13.3358 -15.1946 3.70635 
13.4372 -15.3506 4.55521 13.4508 -15.3732 4.60376 13.4225 -15.324 4.60287 
13.2986 -15.162 2.37418 13.2861 -15.1393 2.41495 13.2743 -15.1194 2.38372 
13.0375 -14.7235 1.71591 13.0254 -14.7017 1.74541 13.0197 -14.6928 1.70354 
12.8689 -14.3997 2.98855 12.8905 -14.4375 2.97696 12.8836 -14.4247 3.01278 
13.0138 -14.6897 1.40377 12.9998 -14.6643 1.45168 12.9882 -14.6453 1.40182 
13.0701 -14.789 1.35382 13.0492 -14.7531 1.3338 13.0674 -14.7854 1.30844 
13.206 -14.9893 2.85411 13.2273 -15.0265 2.85136 13.2146 -15.0034 2.89266 
12.5312 -13.8189 2.71208 12.5535 -13.8571 2.7294 12.525 -13.8067 2.76323 
12.8575 -14.4176 1.41367 12.8673 -14.4337 1.45149 12.8455 -14.3962 1.43822 
13.3138 -15.205 1.68475 13.3404 -15.2505 1.71389 13.3125 -15.2015 1.73455 
12.8485 -14.384 2.15858 12.8561 -14.3983 2.11645 12.8702 -14.4223 2.14281 
13.1355 -14.8492 3.58092 13.1161 -14.8162 3.54938 13.1412 -14.8602 3.53433 
13.3155 -15.1651 3.46761 13.325 -15.1807 3.50566 13.3045 -15.1452 3.49977 
13.1293 -14.8745 2.07884 13.1308 -14.8785 2.02409 13.1517 -14.9143 2.04843 
13.3241 -15.1755 3.6609 13.3487 -15.2183 3.66025 12.5344 -13.8459 1.81263 
12.5167 -13.816 1.77698 12.5388 -13.8548 1.76363 13.1377 -14.8414 4.0675 
13.1228 -14.8149 4.08623 13.1201 -14.8109 4.06134 12.8412 -14.3693 2.24914 
12.8503 -14.384 2.29592 12.8222 -14.3352 2.28878 12.84 -14.3898 1.30587 
12.8299 -14.373 1.26945 12.8521 -14.4117 1.27224 13.3893 -15.265 4.65387 
13.3694 -15.2303 4.66063 13.3712 -15.2343 4.62218 13.4841 -15.4384 4.30471 
13.4778 -15.4263 4.34834 13.4615 -15.3987 4.31328 13.0303 -14.6661 3.58457 
13.0115 -14.633 3.60009 13.0101 -14.6316 3.5585 13.1068 -14.8218 2.64563 
13.085 -14.7831 2.67477 13.0817 -14.7787 2.61685 12.8508 -14.3718 2.83873 
12.833 -14.3399 2.87486 12.832 -14.3393 2.83034 12.8035 -14.3272 1.27015 
12.7778 -14.2829 1.25308 12.7946 -14.3129 1.21465 12.8203 -14.3352 2.15131 
12.8318 -14.354 2.20187 12.8039 -14.3055 2.20159 12.8466 -14.4041 1.18635 
12.8425 -14.3959 1.23542 12.8212 -14.3592 1.21813 13.1366 -14.9049 1.3376 
13.1095 -14.8579 1.33347 13.122 -14.8806 1.29393 13.4276 -15.3358 4.47919 
13.4521 -15.3785 4.47576 13.4388 -15.3546 4.51093 12.795 -14.2876 2.30321 
12.7783 -14.2594 2.26894 12.8007 -14.2987 2.25546 13.3262 -15.17 4.04215 
13.3359 -15.1857 4.0828 13.0799 -14.8037 1.44896 13.0848 -14.8111 1.49395 
13.0653 -14.7775 1.4789 12.5584 -13.8873 1.82735 12.574 -13.9152 1.79562 
12.5829 -13.9296 1.84197 13.0964 -13.7337 1.25748 13.1606 -13.7434 1.2121 
13.0996 -13.7264 1.13248 13.1447 -14.8713 3.32279 13.1341 -14.852 3.35985 
13.1193 -14.8272 3.32302 12.8083 -14.3158 2.09277 12.8305 -14.3554 2.05027 
12.8358 -14.3633 2.10749 12.8715 -14.4187 2.38325 12.8858 -14.4444 2.34687 
12.8953 -14.4598 2.39265 13.2738 -15.1093 2.77184 12.5625 -13.8962 1.755 
12.5888 -13.9419 1.75619 13.1845 -14.9646 2.32829 13.192 -14.9767 2.36829 
13.1692 -14.9372 2.36132 13.1958 -14.948 3.84073 13.1732 -14.9084 3.84885 
13.1794 -14.9202 3.80528 13.396 -15.2877 4.19236 13.416 -15.3232 4.16595 
13.4177 -15.3252 4.20451 13.0114 -14.6546 2.69294 12.991 -14.6197 2.6688 
13.0135 -14.6596 2.64103 12.9163 -14.5027 2.13071 12.8908 -14.4582 2.1351 
12.8979 -14.4716 2.09496 12.7347 -14.1801 2.41171 12.7187 -14.1516 2.43829 
12.7152 -14.1466 2.38696 13.2619 -15.0621 3.87397 13.232 -15.0098 3.88648 
13.2455 -15.0344 3.83418 12.9933 -14.6214 2.76664 13.0096 -14.6492 2.78723 
12.6141 -13.959 2.87766 12.5978 -13.9317 2.8385 12.622 -13.9738 2.83567 
13 -14.6666 1.36876 12.9788 -14.6302 1.34957 12.4487 -13.7017 1.61086 
12.4703 -13.7385 1.64117 12.4501 -13.7029 1.66555 13.2115 -14.9824 3.53985 
13.2245 -15.0062 3.48856 13.237 -15.0269 3.53949 12.6788 -14.068 3.02938 
12.6941 -14.0936 3.06944 12.6716 -14.0542 3.08066 13.1672 -14.9536 1.53493 
13.1754 -14.9688 1.49032 13.191 -14.9952 1.52581 12.9362 -14.5013 3.63241 
12.9623 -14.5474 3.60471 12.9765 -14.571 3.65084 13.0177 -14.6946 1.485 
13.0269 -14.7115 1.44736 13.0422 -14.7371 1.49206 13.2608 -15.0829 2.93097 
13.2461 -15.0567 2.95523 13.2445 -15.0552 2.90201 13.2027 -14.9999 2.17129 
13.2021 -15 2.12783 13.2208 -15.0317 2.16078 12.5873 -13.9186 2.61957 
12.5788 -13.905 2.57436 12.6055 -13.9511 2.57987 12.8467 -14.3606 3.00409 
12.8542 -14.3746 2.9635 12.9398 -14.5384 2.34654 12.9136 -14.4927 2.35546 
12.9246 -14.513 2.30502 12.7946 -14.2836 2.4341 12.7789 -14.2573 2.39687 
12.803 -14.2995 2.38838 13.042 -14.7189 2.23296 13.0237 -14.6873 2.22134 
13.0407 -14.7177 2.19222 13.1339 -14.8376 3.94747 13.1618 -14.8857 3.97197 
13.1361 -14.8402 3.99719 12.5889 -13.9526 1.32099 12.5986 -13.9684 1.36146 
12.574 -13.9257 1.35883 13.17 -14.923 3.00525 13.19 -14.9572 3.03211 
13.1684 -14.9191 3.05251 12.5029 -13.7926 1.75091 12.4948 -13.7778 1.7832 
13.2496 -15.0314 4.26424 13.2474 -15.0287 4.21888 13.2679 -15.0634 4.25268 
12.6489 -14.0288 2.49564 12.6263 -13.9894 2.49318 12.6383 -14.0112 2.45504 
12.5126 -13.7938 2.40257 12.5309 -13.8253 2.4225 12.5119 -13.7918 2.44279 
12.5117 -13.8015 2.02075 12.5151 -13.8064 2.06304 12.4973 -13.7758 2.04462 
13.1717 -14.8968 4.2235 13.1977 -14.942 4.22507 13.1819 -14.9134 4.26806 
12.99 -14.6351 1.95912 12.989 -14.6323 1.99779 12.9711 -14.6016 1.98181 
12.6015 -13.9348 2.97371 12.6162 -13.9596 3.01082 12.5903 -13.9145 3.00903 
13.1693 -13.7376 1.0958 12.4615 -13.7291 1.40095 12.4629 -13.7329 1.34388 
12.4821 -13.7652 1.38622 13.224 -13.7461 1.13029 13.1172 -14.816 3.64309 
13.1271 -14.832 3.6883 13.1017 -14.7881 3.68002 12.7755 -14.2642 1.86159 
12.7861 -14.2819 1.89457 12.7672 -14.249 1.8896 13.1828 -14.9313 3.5892 
13.1618 -14.8951 3.57213 13.1863 -14.9384 3.54989 12.7054 -14.1206 2.76202 
12.7167 -14.1411 2.72973 12.7261 -14.1562 2.77848 12.7169 -14.176 1.28898 
12.7435 -14.2224 1.28838 12.7324 -14.2018 1.33464 13.1547 -14.9182 2.09767 
13.2933 -15.161 2.02953 13.2814 -15.1416 1.97884 13.3034 -15.1794 1.99758 
13.2422 -15.0693 2.15124 13.2367 -15.0587 2.19346 12.7173 -14.1386 2.87561 
12.7286 -14.1575 2.90694 12.7035 -14.1138 2.91107 12.6532 -14.0522 1.83515 
12.6779 -14.0959 1.79872 12.679 -14.0966 1.85203 13.1531 -14.9083 2.39654 
13.1784 -14.9522 2.40565 12.4804 -13.764 1.30974 12.4656 -13.7387 1.29284 
12.4836 -13.7708 1.26516 12.6552 -14.0235 3.17527 12.6814 -14.069 3.1721 
12.6762 -14.0587 3.22816 12.6253 -13.9731 3.10178 12.6486 -14.014 3.09184 
12.6423 -14.0018 3.14455 12.6703 -14.0759 2.08456 12.6778 -14.0879 2.12857 
12.663 -14.0625 2.11104 13.5071 -15.4919 3.74288 13.4869 -15.4567 3.7429 
13.4914 -15.4656 3.69874 12.7033 -14.1279 2.30657 12.7269 -14.1695 2.28224 
12.7219 -14.1595 2.33692 12.9505 -14.5581 2.30418 13.3272 -15.226 1.77621 
13.0656 -14.7427 2.95058 13.0418 -14.7017 2.93607 13.0624 -14.7384 2.90181 
12.8437 -14.347 3.355 12.8226 -14.3101 3.36351 12.8432 -14.3471 3.31498 
12.6688 -14.0575 2.74151 12.677 -14.0732 2.68397 12.6932 -14.1003 2.72991 
13.1119 -14.8556 1.60259 13.1326 -14.8921 1.58073 13.1255 -14.8786 1.63351 
13.1095 -14.8526 1.55965 13.3405 -15.2388 2.21373 13.3253 -15.213 2.18476 
13.3443 -15.2464 2.17125 13.0073 -14.6815 1.27777 13.0281 -14.718 1.26624 
13.0265 -14.7141 1.31518 12.9554 -14.5895 1.34772 12.9609 -14.5978 1.39741 
12.9376 -14.558 1.36871 12.8329 -14.3716 1.54654 12.8502 -14.401 1.57362 
12.8311 -14.3673 1.59382 12.8122 -14.3045 2.84462 12.8614 -14.4121 1.92821 
12.8694 -14.4251 1.96403 12.8509 -14.3929 1.96582 13.1348 -14.8431 3.78431 
13.1418 -14.8567 3.73183 13.1606 -14.8883 3.76987 12.6267 -14.0077 1.76408 
12.6161 -13.9882 1.80455 12.6075 -13.974 1.77416 13.1398 -14.8873 2.30569 
13.1622 -14.926 2.31818 13.1455 -14.8962 2.35063 24.3498 -11.4056 1.39471 
24.3498 -11.4451 1.25765 24.3423 -11.3037 1.2456 13.0624 -14.7585 2.06252 
13.0871 -14.8018 2.05134 13.0811 -14.7902 2.09672 13.0233 -14.6788 2.55087 
13.0396 -14.7079 2.51608 13.0452 -14.7166 2.56344 12.5221 -13.8388 1.22261 
12.5099 -13.8166 1.26343 12.4978 -13.7964 1.22019 13.4728 -15.4276 3.93038 
13.4494 -15.3865 3.94485 13.4543 -15.3963 3.89613 12.7052 -14.1222 2.68543 
13.2968 -15.1103 4.39564 13.3125 -15.137 4.42115 13.2946 -15.1052 4.4502 
13.0604 -14.7261 3.26935 13.0502 -14.7075 3.30424 13.0328 -14.678 3.26921 
12.596 -13.9534 1.80121 12.605 -13.9682 1.83369 12.5021 -13.795 1.59137 
12.4847 -13.7651 1.57815 12.497 -13.7874 1.54464 12.82 -14.3281 2.42937 
13.2149 -15.0371 1.51365 13.2328 -15.0673 1.54698 13.2089 -15.0255 1.56029 
13.4442 -15.3667 4.39909 13.4535 -15.3837 4.35725 13.4702 -15.4119 4.3986 
13.1473 -14.9125 1.80089 13.1436 -14.9049 1.85081 13.1237 -14.8712 1.81284 
13.3026 -15.1883 1.56307 13.2941 -15.1744 1.52986 13.3219 -15.2227 1.53649 
13.3773 -15.2578 4.07913 13.3862 -15.2741 4.04733 13.3985 -15.2949 4.07684 
13.3341 -15.2295 2.13753 13.1668 -14.9498 1.65868 13.186 -14.984 1.62836 
13.1909 -14.9915 1.6726 13.2171 -14.9684 4.52829 13.238 -15.004 4.56078 
13.217 -14.9672 4.56785 12.9264 -14.5023 2.88008 12.9396 -14.5259 2.853 
12.9441 -14.5326 2.89846 13.1576 -14.9357 1.57817 13.1832 -14.9803 1.57766 
13.1681 -14.9532 1.61265 12.6656 -14.0558 2.58106 12.6442 -14.0188 2.57149 
12.6588 -14.0449 2.53694 13.2503 -15.0469 3.66419 13.2261 -15.005 3.66212 
13.2382 -15.0268 3.62207 13.0116 -14.6768 1.78704 13.0035 -14.6639 1.73757 
13.1789 -14.9814 1.22328 13.2041 -15.0249 1.24042 13.1879 -14.9959 1.26828 
13.0104 -14.6734 1.84003 13.0316 -14.7108 1.81934 12.5734 -13.9162 1.71178 
12.5977 -13.9585 1.71138 13.241 -15.0371 3.39558 13.2147 -14.9919 3.37946 
13.235 -15.028 3.34613 13.4196 -15.321 4.51974 13.2529 -15.1026 1.53319 
13.239 -15.0793 1.50104 12.5678 -13.9178 1.24314 12.5906 -13.9574 1.24451 
[...]
CELL_DATA 51422
FIELD FieldData 1
Area 1 51422 double
0.0011885261478 0.00094953098153 0.0013041355309 0.00083865872243 0.00082033994016 0.0013661283173 0.00087618409225 0.00067767185295 0.00069552264032 
0.0012560763262 0.00089790965629 0.00084900127869 0.0012496886078 0.00069524782116 0.0013660481675 0.00079971394759 0.0010868946527 0.00072617579113 
0.0011861521447 0.0011292115604 0.0010279231099 0.00042346056281 0.0012555698132 0.00078517230525 0.0007543056741 0.0009382614893 0.00080650430684 
0.0013659392986 0.00083157858476 0.0012775922698 0.001411502862 0.00112029723 0.0011262256992 0.00081885745979 0.00099607554629 0.00085673732761 
0.00080726678513 0.0010091992433 0.0040226136939 0.00094057698301 0.001500546357 0.0010021898165 0.0010920946115 0.0010577507379 0.00086265852148 
0.00093925531642 0.00081971219526 0.0011142789592 0.00099612301671 0.0009196425526 0.0013999452192 0.0006930136033 0.00099586119635 0.00092998765215 
0.0011404693668 0.0013105120424 0.0010761635256 0.00099032448473 0.0016033595443 0.0009911777586 0.00082489557146 0.00079630550253 0.0011601873192 
0.00078923727057 0.0012256993592 0.0010347007624 0.00073410634077 0.0013414527999 0.00097289126005 0.00099232636481 0.00065846437365 0.0008559961196 
0.00089687263127 0.00075339392949 0.00069388095728 0.0011466031706 0.00071054168718 0.00093929588197 0.0039745468069 0.0011567092783 0.0033597460971 
0.0010687074213 0.00057446316138 0.00089004664318 0.0008575401118 0.0012301784186 0.001198581393 0.00089536778057 0.0008564200326 0.00083495888739 
0.0013590775293 0.0010429936798 0.00071671112013 0.0014535635932 0.0011724883869 0.00052297941189 0.00089605627126 0.0011718906293 0.0010922064692 
0.0014696812789 0.0011174691859 0.00085137596992 0.0013148481593 0.00094075332197 0.00094246178806 0.00075892152084 0.0010039981677 0.0010032915785 
0.00086906826757 0.0008986115959 0.00067882519726 0.0012554510103 0.00067306321605 0.0009388363468 0.0099424851789 0.0010582517013 0.00096961975672 
0.001028139089 0.0010730102704 0.0012756790751 0.00091537813487 0.00096896576849 0.00079409110331 0.00074797286868 0.0011289408356 0.0010361063591 
0.0010861774615 0.0011369827813 0.00087149282375 0.00065817859708 0.00078122719543 0.0010031660034 0.00083431063179 0.00072365745067 0.00089178698888 
0.00088152926102 0.00099481063637 0.0010209629057 0.00098503569399 0.0011024113368 0.0010893239824 0.0012053839351 0.00083807651068 0.0008401193675 
0.00086645217386 0.00090101381518 0.001120914267 0.0011103491996 0.00090695993173 0.00090735003652 0.0014089482393 0.0015000313799 0.00088965342718 
0.00090958783143 0.00076937923371 0.00076420905484 0.0005633260664 0.00098872602344 0.00045763796141 0.0009267330459 0.0011474756578 0.00093969077949 
0.001031222389 0.00087819930619 0.000926564734 0.0011495798446 0.0013680050058 0.0011269459875 0.0010439190708 0.00086651622311 0.00092280865855 
0.0012884791189 0.0009989703141 0.00072680228673 0.0011528135857 0.0010791623849 0.0010496381622 0.00093737366344 0.0011189169883 0.0011313253351 
0.0012701183298 0.0010046082959 0.00069555047645 0.0009032787826 0.00084428829242 0.00081269542985 0.00091970394251 0.0013516637568 0.0010722868525 
0.00084365334587 0.00089417911442 0.00064986783317 0.00094246135612 0.0014379365342 0.00080919522683 0.0011530535932 0.0010449923479 0.001205550516 
0.0014370803557 0.001110662855 0.00091062188738 0.0012643294576 0.00066815504988 0.00077055965616 0.00090199533709 0.0021716891984 0.0011070363243 
0.00065969104937 0.001076188131 0.00071297883516 0.00098186888925 0.00075737645033 0.0010781143234 0.0010409082182 0.00086437630579 0.0007426407695 
0.00099986583836 0.0012129332917 0.0014132148171 0.00089527244734 0.00096049671362 0.00091779708374 0.0099321389147 0.00081709768183 0.00087748831545 
0.0019005653525 0.0012412895129 0.00089966278304 0.00070601077896 0.001057890955 0.0006765085668 0.0013868999935 0.0016098662572 0.0009391313996 
0.00091079752783 0.0014671443063 0.0007778646547 0.0007524961232 0.00061621564294 0.00073055228747 0.00092128571133 0.00059841336979 0.0007706836762 
0.00073951313201 0.001006020268 0.00090555491974 0.0012980488822 0.00085937045938 0.0007260463452 0.0008919991506 0.00093689584635 0.001468858775 
0.0006691827128 0.00091100339868 0.00077806856276 0.0010289360428 0.00075274951139 0.0013571569913 0.00092224532509 0.0015571470124 0.0012197119375 
0.00096657125761 0.00099511133297 0.00073853543425 0.00097194486265 0.0011209724144 0.00088770840034 0.00098284556852 0.0078513245582 0.0010424096006 
0.0010015132794 0.0019954341141 0.00095670166337 0.00098454530274 0.00090242021882 0.0010137833208 0.00093898295223 0.00093890141894 0.00094799941703 
0.00093008412274 0.00074230089006 0.00074259377434 0.0012406539385 0.00090113618048 0.00074882303111 0.0011402284197 0.0011589870908 0.00091986246309 
0.0010806938665 0.00088639044201 0.00069723438575 0.00079271085783 0.00080714359426 0.0010126934081 0.00097926722394 0.0011895142709 0.00098391025234 
0.0018553702501 0.0010719405478 0.00042883708609 0.0012450134596 0.00071475493541 0.0009072342038 0.00080606960999 0.001187679527 0.0009821252094 
0.0007426836385 0.00079806199314 0.0009435667223 0.00071184244056 0.0010169000673 0.00093563473214 0.00094414025797 0.00096301360462 0.00069474646845 
0.00081256351738 0.00080534415161 0.0010373178166 0.0011367380701 0.0011386680859 0.0012235594922 0.0011783407172 0.00073968442594 0.00087434782341 
0.00092567045497 0.0008040887782 0.001194438509 0.00091687342285 0.0009907543304 0.00076913925485 0.0013295529724 0.0010075455766 0.00077338072264 
0.00073073378293 0.00074729990575 0.00092798069399 0.00098402070156 0.0012450983584 0.00079118408547 0.00051847262991 0.0011803125258 0.00076800020703 
0.00083586996371 0.00097084738826 0.00098155310815 0.0010061555701 0.0012252258459 0.013950753506 0.0008197526275 0.0011297694112 0.0012184950355 
0.0009474482009 0.00092404630809 0.0011679821339 0.0009841367556 0.00079407672845 0.0011543969668 0.0014318017774 0.0011062758171 0.00066255036141 
0.00092121722603 0.00099134610632 0.0009867301546 0.0007180143473 0.00075262286906 0.0014139703277 0.00078848289572 0.00096764224922 0.00083826320029 
0.00087439940149 0.00095026298856 0.00089678808262 0.0010571107061 0.0011930207465 0.0013525784919 0.001210564638 0.00081124389542 0.0011267775427 
0.00070409609015 0.0076248362607 0.0010872017589 0.00096906850126 0.0010188149534 0.00063736729339 0.0010921053087 0.0010038696122 0.00097964471506 
0.00099949112837 0.0010004167848 0.0014356561242 0.0011263510906 0.001116796792 0.00094866161726 0.00092395998553 0.00081502083487 0.00091657469839 
0.00098999176731 0.00084863638757 0.00099500231239 0.00093116632862 0.0015406763358 0.00098732889136 0.00074329471321 0.00066683853721 0.0011631476476 
0.0008085297438 0.00079096031739 0.0011538784351 0.00057657060882 0.00097061724602 0.0011515233187 0.00092634977924 0.00082179651265 0.0008941973637 
0.0011689691316 0.00076212997494 0.00085429462836 0.00078337728236 0.001206903249 0.00094681353109 0.0076440710266 0.0011270118795 0.00097304947322 
0.00091841567968 0.00092603633935 0.0010184064737 0.00077223834497 0.0011638889679 0.0010436196339 0.00129637832 0.00083755151225 0.00085962687251 
0.00096911638676 0.00067499042718 0.00089966772949 0.0011622115554 0.00097273638324 0.0010564147499 0.00085261576125 0.00081041693082 0.00099032773678 
0.00086671926992 0.0011668983477 0.001098853879 0.00098425447314 0.0013112088847 0.00061530816098 0.00086721867966 0.0010384906415 0.0010374072887 
0.00075040490545 0.00063040964967 0.0007308488505 0.00075314874273 0.00093494550231 0.0015142576707 0.0014798703006 0.0017861216358 0.00086547089826 
0.0015039857673 0.0008783405372 0.0011066904054 0.00089726461907 0.0006386473494 0.00077818661119 0.0011216619405 0.00095743840006 0.00076737070378 
0.00094594447776 0.00098987837037 0.0007947532766 0.00078756344773 0.0010508188923 0.0010513963278 0.001056580387 0.00099202354786 0.00088779950532 
0.0012554577764 0.0010030829257 0.00087133320781 0.0011584167115 0.0011461384382 0.0013012197661 0.00090059762566 0.00099699169459 0.001027723015 
0.00098316505729 0.00082001971194 0.00094418337361 0.00092978353445 0.001138367964 0.001056062509 0.00098158889069 0.00098637687616 0.00080774888043 
0.0012411920612 0.001445536897 0.00094117167923 0.00081605894716 0.00022088122363 0.00067007410998 0.00068187190106 0.00099334286192 0.00080592730287 
0.00067292204877 0.0011846526943 0.00099245930314 0.0010154848376 0.0010994202536 0.0011427875816 0.0012617253987 0.0019563686956 0.0011410362346 
0.00091883573698 0.00071326717846 0.0078140124347 0.00094898570255 0.0013965151345 0.0011018161173 0.00068100721905 0.0011316506387 0.00059407426406 
0.0013407859889 0.0011399546278 0.0010204347308 0.00086974535059 0.0009646791438 0.0010483464059 0.0013328672242 0.0010533994631 0.0010285346197 
0.0011080025337 0.00074209467643 0.00098454299757 0.0011279342094 0.00064122784142 0.0012543800849 0.0011824789104 0.0084579426659 0.0013584510569 
0.0013734006025 0.00082532778317 0.00068608729046 0.00087656658499 0.00073357572291 0.0010405693422 0.0010489453961 0.00099270303328 0.00093534340545 
0.00084887596393 0.0007446834001 0.00098179051328 0.00092951258226 0.0012945694642 0.00088757019823 0.00083540726569 0.0015483776616 0.0011360492783 
0.00096332906968 0.00093160191933 0.00097005283397 0.0010742435716 0.00075170546347 0.0009449604042 0.001446605271 0.0013599372468 0.0012107958908 
0.00072772898226 0.00095727854598 0.0011628646458 0.00086340722006 0.0013243681986 0.00071888873374 0.0013162290072 0.00086056953299 0.0011137236244 
0.0011395669966 0.0010707169751 0.0010811742169 0.0009521558359 0.0010277469257 0.00040300605228 0.0011061101403 0.0008820079064 0.0009015620407 
0.00116134099 0.0010849343932 0.00089257435986 0.00099156892378 0.00086461805461 0.00092313314031 0.00079193323145 0.00076668103001 0.001162425856 
0.00082838968555 0.00079841489332 0.0011980376657 0.0013378327462 0.0013607014506 0.0009595029247 0.00057209305144 0.00098444181283 0.0013558730186 
0.0010749453118 0.0010264671622 0.0011936046588 0.00062931053891 0.0015593950446 0.00081352225845 0.0010432646511 0.0011028250612 0.0011596527285 
0.00075797658072 0.0010637826067 0.00086009455276 0.00086281303806 0.0009655454448 0.00069869516502 0.00097483175023 0.0012658492635 0.00070894393813 
0.00071500740702 0.0013134187021 0.00065014703468 0.0011961234694 0.00068624880012 0.0010229317641 0.0006911893308 0.00086335305182 0.0011102409424 
0.00108764963 0.0011037646471 0.00090330357805 0.0012434439722 0.00098215008433 0.0012494113534 0.0010154279273 0.0011543799278 0.00095096043762 
0.00096016399912 0.0010094265076 0.00088769485104 0.00075657494809 0.00075399872121 0.0010236698797 0.00092920086895 0.0010852040549 0.0012451103314 
0.00086266957944 0.00087064348563 0.0011016685061 0.0016489578057 0.00087001782367 0.00088811635117 0.0011728152533 0.0010103832436 0.0010605107916 
0.0010732923849 0.00086484978907 0.00090925392675 0.00091324369585 0.0011988873419 0.0007338210842 0.00097147741621 0.0011744712555 0.0010878554369 
0.00097277010796 0.029802674854 0.0008417157685 0.001173583275 0.00096165844931 0.00094869865233 0.00072991749219 0.00083715206802 0.015931617082 
0.0010002791184 0.00099657569022 0.00082650366176 0.00080186872534 0.0010319353053 0.0010105258345 0.00092753932234 0.00095313412547 0.00068219424303 
0.001211087334 0.00071968789499 0.0010170465493 0.0012205107411 0.0010901209999 0.0013029172224 0.00072485959162 0.00099284111623 0.0016614510228 
0.00088260003417 0.0011631901464 0.0010849515026 0.0014567816262 0.0010041158584 0.001217917697 0.00071752933658 0.00085743875006 0.00099261579611 
0.0011327878758 0.0010882764999 0.00071123814129 0.00071256096149 0.00089129577476 0.0009255581294 0.0010260838118 0.00098784322994 0.00085401394348 
0.0012462642097 0.00092850114607 0.00084442173795 0.0010726938869 0.00076670893359 0.0011407482676 0.00085558723799 0.0012737154605 0.000995558763 
0.0012553514405 0.0010364583291 0.0010462216389 0.0016960232674 0.00082869938127 0.0010797855909 0.00074461767088 0.0012152195045 0.00095188008998 
0.0009511442309 0.00088283257173 0.0011556342952 0.000835916252 0.0010873059274 0.00084684612615 0.00094057568086 0.00065879309145 0.0011089425265 
0.0012621426153 0.00105728452 0.00097686365604 0.0011746781277 0.00069414229902 0.00089111122015 0.0014937175697 0.0013569829812 0.00083374380276 
0.0015367951062 0.012817147718 0.00078619886556 0.00087675298501 0.0010388728482 0.0012021560978 0.0011390640426 0.0011779148861 0.00091974439278 
0.0016040927092 0.0011602639105 0.00094133695735 0.00099326444731 0.00095910939617 0.00096891912015 0.001030424074 0.00075644521611 0.0010900452309 
0.0011118772025 0.00077507215298 0.00093580807311 0.001120842164 0.0012598686437 0.0010647978198 0.00094452385666 0.00072301284884 0.00090093748486 
0.00077734543783 0.00093407496354 0.00082187345153 0.0011367894395 0.0016021904399 0.0009178096653 0.00065534355746 0.00094922137847 0.00093507183921 
0.0017258656286 0.0011679795553 0.00073204258494 0.00086235491784 0.0012331470893 0.00094956141164 0.0010680006392 0.00076557596551 0.0010466376535 
0.0010044033928 0.00089586711322 0.0010298785625 0.00080996436154 0.0014024231833 0.0013622484413 0.00068906793733 0.0009374048894 0.0013534602473 
0.0012028191771 0.00080952827969 0.00090961925716 0.0009273174873 0.0010637090574 0.0013662695429 0.00092925211329 0.00064951800411 0.00075572200462 
0.0010969758656 0.0014335352084 0.00058120758227 0.0010795950281 0.00098598180623 0.0012982655752 0.00092807163918 0.001229625877 0.00096052538097 
0.0012722099302 0.00077859788466 0.00088477301023 0.00078516456772 0.0012123616389 0.0012217677381 0.00092873458333 0.00050503543506 0.00087260032901 
0.00086833128461 0.00091647142168 0.0012350776164 0.00049415987633 0.0010600125331 0.0011426746627 0.0009125027175 0.00071056712217 0.0012342669919 
0.0013619535752 0.00092705771547 0.00071707824703 0.00084732439127 0.0011247977087 0.0010368660107 0.001032897769 0.0009105833138 0.00078359622949 
0.014820254144 0.0010908640488 0.001109414009 0.00077227514735 0.0016552803717 0.00082449083736 0.00095577535701 0.00093202706124 0.00099956842947 
0.0010077001392 0.00094546672248 0.0010118984934 0.00081025800285 0.00091298708862 0.00092348982849 0.00075032100378 0.0010589455606 0.0010857602992 
0.00086986942908 0.0017606833628 0.0010663886693 0.00084242779878 0.00084988624104 0.00076763670488 0.0013704403671 0.0011239432735 0.00062298114059 
0.0011378205631 0.00097328210137 0.00044638545616 0.0010341202782 0.0014635375435 0.0010456454459 0.0010627966042 0.0010052411943 0.0010132774841 
0.00086692724504 0.0010482352471 0.0008659906531 0.0013082955221 0.00030806523269 0.00067735660004 0.0010818513255 0.00073215661683 0.00091284616718 
0.0013123512038 0.0012519905611 0.00067491930545 0.0018982671431 0.0010465892061 0.00094399336007 0.0010122624686 0.00083065883143 0.0007626706646 
0.00078898899944 0.00076947897202 0.00088670628849 0.0010222302209 0.0012792718509 0.00090745331829 0.00088738595561 0.0012418350605 0.0010203973073 
0.00091146814421 0.00072193641007 0.00031539208733 0.00083424613785 0.00099733971156 0.00078287578766 0.00089233743787 0.00069134090558 0.00094781080021 
0.00093530210638 0.00090298603887 0.0014199062881 0.0013906823789 0.00091894543387 0.0010811875275 0.00092442825842 0.0010528732196 0.0008446239972 
0.00089433922112 0.001136341264 0.0016768575764 0.00083375769058 0.0013698006352 0.0013009312511 0.00088408074666 0.0014339790028 0.0010701863703 
0.00096087987449 0.0013028422 0.0008000118594 0.0010432781163 0.0012871372314 0.00092964829659 0.0013523471386 0.0011088573037 0.00075985737357 
0.0010277478859 0.00084263604169 0.0006535463679 0.001110724435 0.00092949483116 0.00099162335897 0.00092106880119 0.0012715227285 0.0008732285765 
0.001011719343 0.001071686379 0.00085128844534 0.0010555041407 0.00094650842001 0.0011642787512 0.0011123434845 0.0010052729014 0.0010250076849 
0.0010426931423 0.017768048515 0.00097083814275 0.0011824948005 0.0012636194269 0.0011536372338 0.0016378498602 0.0008378619735 0.00098211158229 
0.00079898667579 0.00095571513677 0.00062357830246 0.0011218588814 0.00066864249594 0.00092045789189 0.00078053797967 0.0010315077472 0.00085299234964 
0.001134039373 0.00095596797446 0.00088343060707 0.00084719116861 0.0093177526234 0.00097147905978 0.0011958207112 0.00070514689953 0.0012936841432 
0.0010984261374 0.0008783065058 0.00078929054947 0.0013436001935 0.0010740276567 0.00079870806747 0.00080164398113 0.00083117264861 0.0010925768517 
0.001144633246 0.0010125342849 0.00096077859118 0.00059434486045 0.00099005186382 0.001243559243 0.0010506308299 0.00087529804146 0.0011402960067 
0.0010140246199 0.001169172886 0.001263147203 0.00098424898534 0.00088397318436 0.00089652566216 0.00099713441771 0.00083473035218 0.00093924669068 
0.00094477220196 0.00088644677388 0.0013078119895 0.00079458103497 0.00075804109117 0.0013535382985 0.00064930185155 0.00079146975023 0.0010394102474 
0.00081022465953 0.001019437419 0.00086790309922 0.00085654125103 0.00083711163441 0.00084355109654 0.0019007229402 0.00093156723159 0.00097018985992 
0.00078293702933 0.0013393689906 0.0013188828596 0.0007313536449 0.00076788071382 0.0010914253409 0.00093902946398 0.00083175871654 0.0010928142666 
0.0012026934388 0.00094821600921 0.018319028442 0.0013519011619 0.0010606256155 0.00087747561128 0.0012386415091 0.0013075666047 0.0010182096077 
0.00098853468399 0.00097601202071 0.0010449601659 0.00089059913535 0.0011294567842 0.024632229948 0.0011076909911 0.0010435830767 0.0011859504252 
0.0011127472342 0.0013152237247 0.00078771049028 0.0010325835493 0.0011019085452 0.0011151415209 0.0010803254718 0.0013164559648 0.0010690530372 
0.0010307170831 0.00087758643547 0.0011844560016 0.0013139284317 0.0014135775312 0.0011945812388 0.0012792665558 0.0010114000137 0.0013714018529 
0.00070194135061 0.00088583870259 0.0012705413862 0.00099609508645 0.00079317386447 0.00091797669823 0.001199150365 0.00083306397863 0.00086381504811 
0.0011330202108 0.0007165822921 0.001168256411 0.00076273484078 0.00072196879592 0.001261232358 0.0011747093149 0.00055844410725 0.00096412379583 
0.00086835069823 0.00083871724601 0.00088554107345 0.00099329069581 0.001377633631 0.0010712462341 0.00089513587934 0.00096096992909 0.00077544416022 
0.0012986918242 0.00096552568904 0.0011208879371 0.00087998167083 0.0010405134319 0.0012258591345 0.0013122804608 0.00099588910742 0.00089177657136 
0.00089753967597 0.0011670276942 0.0010061057112 0.0012631491837 0.00078719573003 0.0010515059874 0.00091720742028 0.0013461633272 0.00094527550322 
0.0013676690637 0.00082019898673 0.00081982976565 0.0010379972771 0.00077272437619 0.0011622254004 0.00078377265721 0.00064616435859 0.0010772964238 
0.0026132763539 0.00099429662882 0.00078655625874 0.0011020019591 0.0010598575794 0.0011184059233 0.00088041213591 0.0010991778029 0.0010271000191 
0.0012648770165 0.0010019565587 0.00069738264627 0.0010285819751 0.00064490353455 0.00099532902149 0.00091518784249 0.00099884779965 0.0010541939461 
0.00085360876169 0.00093061090644 0.00018673729591 0.0010703093917 0.00054551649294 0.0010449531849 0.0014742038325 0.00080194628849 0.0010279500155 
0.0010281897147 0.00096285165175 0.0010183973067 0.00093554015397 0.0015702354939 0.0011069453072 0.0010633008176 0.00097532133386 0.00062377364048 
0.00091417530447 0.00078803957192 0.00072965790499 0.00066193288916 0.0010149975931 0.00095905692117 0.00034094839883 0.00086775394667 0.0062623502888 
0.001326197218 0.00091481660583 0.0008929023844 0.00083318596514 0.00078487565585 0.00082821485736 0.00098197551815 0.0010759334627 0.00094258215939 
0.0011918286344 0.0013491353685 0.00093004751492 0.0010037844853 0.00095185700837 0.0013283000036 0.016162910463 0.0010901300718 0.0011455706811 