# vtk DataFile Version 4.2
vtk output
ASCII
DATASET POLYDATA
POINTS 23148 float
13.4083 -13.7519 1.25038 13.4336 -13.7751 0.873673 13.5274 -13.9104 0.883903 
13.2661 -13.5027 1.12563 13.3325 -13.6275 1.1255 13.3292 -13.6276 1.25056 
13.0941 -12.7501 1.24994 13.1282 -12.8724 1.02535 13.119 -12.8916 1.14149 
13.4056 -13.7518 1.3753 13.3269 -13.6273 1.3755 13.4052 -13.7521 1.5006 
13.3277 -13.6262 1.50034 13.4067 -13.753 1.62628 13.3245 -13.6179 1.63016 
13.4006 -13.7538 1.75696 13.3122 -13.6203 1.77387 13.3846 -13.755 1.87232 
13.3004 -13.645 1.90417 13.232 -13.5124 1.8521 13.2589 -13.688 2.13177 
13.1925 -13.5847 2.10897 13.1527 -13.3776 1.87289 13.1849 -13.3819 1.74635 
13.2508 -13.5013 1.68816 13.2009 -13.3827 1.60478 13.2519 -13.4931 1.52959 
13.2074 -13.377 1.37543 13.1704 -13.2508 1.37531 13.1634 -13.2506 1.50052 
13.1498 -13.2507 1.62578 13.1275 -13.1256 1.50048 13.1398 -13.1253 1.37518 
13.1128 -13.0006 1.3749 13.0973 -13.0006 1.50036 13.1077 -13.126 1.62551 
13.0747 -13.0005 1.62567 13.0804 -13.1259 1.75047 13.0408 -12.9978 1.75334 
13.0445 -13.1248 1.87931 13.0009 -13.0042 1.88135 13.0036 -13.13 2.00822 
13.0546 -13.2556 2.01186 13.0382 -13.3954 2.2417 13.1124 -13.3767 2.00025 
13.1373 -13.5055 2.12849 13.0369 -13.4932 2.35857 13.119 -13.6177 2.38536 
13.0066 -13.5235 2.47479 12.9318 -13.3851 2.49986 12.9555 -13.5267 2.60631 
12.8769 -13.3758 2.62479 12.8859 -13.5057 2.75003 12.9484 -13.578 2.72642 
12.9303 -13.6327 2.87129 13.0397 -13.7454 2.87997 13.0396 -13.6522 2.64082 
13.0912 -13.751 2.74973 13.1221 -13.8715 2.87522 13.0721 -13.8692 3.00135 
13.1336 -14.0024 3.00002 13.079 -13.992 3.11181 13.0188 -13.8693 3.12479 
13.0514 -14.0243 3.23005 13.1234 -14.1322 3.18646 13.105 -14.1617 3.30419 
13.0509 -14.0914 3.36084 12.9837 -13.9059 3.2709 12.9961 -13.9869 3.40242 
13.0764 -14.1719 3.50813 13.1316 -14.2464 3.45914 13.1673 -14.3054 3.58731 
13.1097 -14.2323 3.62841 13.2099 -14.3826 3.74727 13.1874 -14.3789 3.87585 
13.2806 -14.4753 3.84947 13.2669 -14.4882 3.97395 13.1637 -14.3783 4.00101 
13.2658 -14.5153 4.0985 13.1606 -14.4046 4.13815 13.2728 -14.5466 4.21366 
13.199 -14.4859 4.29321 13.2735 -14.5784 4.36353 13.1868 -14.4991 4.43716 
13.1441 -14.4384 4.37459 13.1192 -14.4361 4.52754 13.182 -14.5195 4.59681 
13.106 -14.4388 4.65287 13.1821 -14.5309 4.72214 13.0978 -14.4405 4.77801 
13.1885 -14.5545 4.91118 13.0392 -14.3946 4.99719 13.1891 -14.575 5.04965 
13.1611 -14.557 5.16076 13.0123 -14.3775 5.12535 13.002 -14.378 5.25011 
13.1427 -14.5587 5.40276 13.0891 -14.5043 5.49614 12.9858 -14.379 5.50087 
13.1659 -14.6003 5.59797 12.9784 -14.3791 5.6259 12.9681 -14.3771 5.87529 
12.8827 -14.2535 5.75041 12.8814 -14.2521 5.87554 12.9643 -14.3773 6.00033 
12.9522 -14.3646 6.26232 12.8642 -14.234 6.23354 12.9361 -14.3508 6.38835 
12.8681 -14.2639 6.48809 12.7936 -14.1253 6.25008 12.7828 -14.1244 6.49969 
12.8511 -14.2533 6.62541 12.8481 -14.2534 6.75065 12.9209 -14.3574 6.72231 
12.9406 -14.3848 6.86734 12.8489 -14.2525 6.87558 12.9336 -14.3781 7.00054 
12.8502 -14.2518 7.00037 12.9328 -14.3784 7.12559 12.8524 -14.2514 7.12529 
12.9362 -14.3786 7.25086 12.8575 -14.2514 7.25041 12.9273 -14.3495 7.37536 
12.8491 -14.2233 7.37526 12.809 -14.1389 7.48861 12.7827 -14.1096 7.3586 
12.7278 -14.0017 7.37558 12.7378 -14.0015 7.50058 12.8104 -14.1148 7.63738 
12.7354 -13.9727 7.62532 12.8418 -14.1255 7.87536 12.7703 -14.0013 7.8756 
12.8518 -14.125 8.00015 12.7846 -14.0009 8.12537 12.7044 -13.8753 7.87514 
12.7148 -13.8777 8.12567 12.8668 -14.1265 8.37523 12.7219 -13.8779 8.25064 
12.795 -14.001 8.37497 12.7315 -13.8778 8.3757 12.7904 -13.9742 8.50003 
12.7356 -13.8498 8.5006 12.7798 -13.9043 8.62534 12.8361 -14.0294 8.62531 
12.8368 -13.9845 8.73369 12.8131 -13.8591 8.85858 12.8508 -13.8885 8.9888 
12.7794 -13.7509 8.87557 12.8248 -13.7339 9.10878 12.8663 -13.8493 9.12617 
12.8596 -13.739 9.23874 12.8059 -13.6423 9.14217 12.8648 -13.6258 9.3761 
12.8244 -13.5007 9.34816 12.7727 -13.5283 9.12537 12.7787 -13.3754 9.2783 
12.8129 -13.3757 9.40403 12.864 -13.5009 9.47361 12.8572 -13.3758 9.52955 
12.9129 -13.5004 9.59824 12.9093 -13.3922 9.64307 12.8862 -13.278 9.6269 
12.8233 -13.2383 9.49004 12.8849 -13.1528 9.64043 12.8144 -12.8919 9.51787 
12.8651 -12.8472 9.62596 12.7934 -12.7854 9.47861 12.8633 -12.7222 9.62614 
12.9948 -12.7221 9.87607 12.9318 -12.5623 9.74995 12.8644 -12.5973 9.62624 
12.8897 -12.4789 9.66799 12.9789 -12.4802 9.83467 12.9329 -12.3867 9.7392 
13.0098 -12.3747 9.876 12.9682 -12.2494 9.77977 12.9038 -12.2498 9.65428 
12.9589 -12.1183 9.72589 12.8987 -12.141 9.60981 12.8769 -11.9712 9.50215 
12.9963 -11.9989 9.75271 13.0998 -12.1245 9.9735 13.1039 -11.8735 9.87669 
12.9491 -11.8786 9.6036 13.0027 -11.7482 9.62692 12.9324 -11.7534 9.49769 
12.965 -11.4982 9.37671 12.8698 -11.7433 9.36986 12.8968 -11.4982 9.25195 
12.9534 -11.3728 9.25117 12.8865 -11.3723 9.12642 12.9526 -11.2484 9.12502 
12.8811 -11.2465 9.00196 12.8842 -11.1211 8.87809 12.816 -11.2479 8.87631 
12.8243 -11.1239 8.74997 12.9034 -10.9939 8.75136 12.948 -11.02 8.86456 
13.0065 -10.8643 8.76079 12.9155 -10.8937 8.63977 13.0089 -10.7685 8.62539 
12.8907 -10.8017 8.47088 12.8368 -10.9199 8.52468 12.7157 -10.8971 8.24986 
12.7766 -10.9979 8.50041 12.759 -11.247 8.75171 12.709 -11.2484 8.62529 
12.7029 -11.3858 8.73903 12.7641 -11.3731 8.87699 12.8378 -11.4989 9.12566 
12.7454 -11.6076 8.98379 12.8403 -11.6428 9.23623 12.7747 -11.7491 9.15416 
12.816 -11.7729 9.26757 12.7844 -11.8856 9.2547 12.8346 -11.8707 9.36159 
12.8955 -11.8496 9.48298 12.8114 -12.005 9.36085 12.7606 -11.9725 9.23224 
12.732 -11.8848 9.12041 12.7129 -11.995 9.11402 12.7499 -12.0968 9.25156 
12.7023 -12.1226 9.12942 12.6753 -11.9995 9.00041 12.6573 -12.1369 8.98814 
12.6875 -12.2503 9.12538 12.7351 -12.2129 9.25132 12.715 -12.3444 9.24272 
12.7778 -12.2776 9.37572 12.7951 -12.1492 9.37157 12.8435 -12.2383 9.51155 
12.8024 -12.3746 9.46496 12.8623 -12.375 9.59887 12.8201 -12.5 9.52879 
12.7799 -12.4773 9.43477 12.7971 -12.6369 9.48984 12.7405 -12.5833 9.35356 
12.7445 -12.7013 9.36511 12.762 -12.9029 9.3904 12.6963 -12.7499 9.22203 
12.7047 -12.6186 9.25823 12.6557 -12.6253 9.12661 12.6526 -12.75 9.09806 
12.6791 -12.875 9.15354 12.6417 -12.8751 9.02863 12.6819 -13.0003 9.12567 
12.7597 -13.0165 9.35906 12.7752 -13.2504 9.34877 12.7014 -13.1246 9.12458 
12.7426 -13.2504 9.22297 12.7484 -13.3871 9.13681 12.6842 -13.2334 8.98345 
12.7298 -13.4731 9.0006 12.7673 -13.6138 9.01241 12.7094 -13.501 8.87579 
12.7418 -13.626 8.87576 12.6886 -13.5006 8.75038 12.7192 -13.6255 8.75043 
12.7526 -13.7516 8.75103 12.6964 -13.6254 8.62538 12.7284 -13.7634 8.61405 
12.6746 -13.6255 8.50041 12.6978 -13.7344 8.48389 12.6746 -13.7519 8.27796 
12.6361 -13.6258 8.25 12.6354 -13.5279 8.37476 12.6066 -13.5007 8.25017 
12.564 -13.5009 8.00045 12.5991 -13.6268 8.00047 12.6568 -13.7394 8.13663 
12.6503 -13.7506 7.99994 12.5866 -13.627 7.87552 12.5765 -13.6268 7.75047 
12.6387 -13.7629 7.73832 12.6792 -13.8751 7.50016 12.5691 -13.626 7.62518 
12.6123 -13.7507 7.37519 12.6703 -13.8751 7.37512 12.6076 -13.7503 7.25006 
12.664 -13.8753 7.2502 12.7201 -14.002 7.25061 12.6595 -13.8752 7.12517 
12.7143 -14.0021 7.12549 12.7854 -14.1264 7.25042 12.78 -14.1264 7.12529 
12.7107 -14.0017 7.00033 12.7776 -14.1259 7.00023 12.7084 -14.0013 6.87526 
12.776 -14.1258 6.87517 12.7071 -14.0011 6.7502 12.7753 -14.1256 6.75004 
12.7084 -14.0017 6.50018 12.6435 -13.8762 6.62528 12.6449 -13.8762 6.75013 
12.5864 -13.7514 6.6252 12.5907 -13.7509 6.75011 12.6487 -13.8761 6.87515 
12.5971 -13.7503 6.87514 12.6536 -13.8758 7.00015 12.6022 -13.7499 7.00016 
12.6062 -13.7494 7.12509 12.5488 -13.6258 7.00036 12.5492 -13.6261 7.12522 
12.5464 -13.6139 7.26209 12.4974 -13.5016 7.12546 12.4879 -13.4732 7.25021 
12.5138 -13.5287 7.37513 12.4644 -13.4038 7.37513 12.5088 -13.5011 7.5002 
12.5192 -13.5007 7.625 12.5529 -13.5176 7.89198 12.4783 -13.376 7.6253 
12.5241 -13.4031 7.87508 12.5415 -13.3749 7.99979 12.4959 -13.2623 7.86358 
12.4507 -13.2504 7.62525 12.4579 -13.1252 7.75002 12.4775 -13.1256 7.87454 
12.5216 -13.2503 7.99946 12.4635 -12.9998 7.87464 12.4473 -12.9996 7.74931 
12.4332 -12.8742 7.74895 12.4964 -12.9724 8.12491 12.4544 -12.7496 7.99961 
12.4738 -12.7495 8.12443 12.4955 -12.7502 8.37543 12.4808 -12.6251 8.34762 
12.5009 -12.6132 8.48908 12.478 -12.5 8.37365 12.4455 -12.4999 8.12471 
12.4578 -12.6248 8.12468 12.424 -12.4997 7.99937 12.4378 -12.6247 7.99952 
12.394 -12.5004 7.87562 12.4135 -12.6247 7.87473 12.4192 -12.766 7.76587 
12.39 -12.637 7.73804 12.3924 -12.7498 7.65225 12.4069 -12.8742 7.6238 
12.3203 -12.7504 7.37557 12.3313 -12.6087 7.48353 12.2786 -12.6531 7.25092 
12.2966 -12.7672 7.26749 12.3904 -12.9996 7.49967 12.3603 -13.0118 7.36329 
12.3112 -12.8756 7.25079 12.3307 -12.9839 7.23386 12.3599 -13.0985 7.25004 
12.3888 -13.1536 7.37526 12.4058 -13.1251 7.50014 12.4288 -13.2506 7.50029 
12.4626 -13.3765 7.50041 12.4227 -13.2787 7.375 12.4421 -13.3478 7.24978 
12.3984 -13.2229 7.24956 12.4078 -13.2495 7.12474 12.4542 -13.3746 7.12501 
12.4105 -13.2498 6.99984 12.4564 -13.3747 7.00002 12.4978 -13.5018 7.00042 
12.46 -13.3747 6.87511 12.5001 -13.5012 6.87547 12.5483 -13.625 6.87528 
12.4974 -13.501 6.75041 12.543 -13.6253 6.75015 12.4918 -13.5012 6.62529 
12.5364 -13.6261 6.62513 12.491 -13.5009 6.50009 12.5369 -13.6258 6.50007 
12.5871 -13.7512 6.50032 12.5411 -13.6267 6.37616 12.5908 -13.7513 6.25022 
12.6441 -13.8771 6.37534 12.6474 -13.877 6.25026 12.711 -14.0023 6.37531 
12.6583 -13.8767 6.00025 12.7266 -14.0018 6.00036 12.8016 -14.1258 6.00031 
12.7334 -14.0012 5.87538 12.8079 -14.1262 5.75023 12.6768 -13.8758 5.62512 
12.7425 -14.0013 5.62447 12.8124 -14.1272 5.62558 12.8891 -14.2527 5.6253 
12.821 -14.128 5.50118 12.8301 -14.1271 5.25035 12.7503 -13.9898 5.26355 
12.6775 -13.8482 5.25 12.6988 -13.8766 5.12513 12.6394 -13.7515 5.12516 
[...]
CELL_DATA 46292
FIELD FieldData 1
Area 1 46292 double
0.031187231694 0.0088418759317 0.0093487897655 0.0092037732251 0.0092018798857 0.0092276616765 0.0092287684608 0.0092903281535 0.010248833558 
0.010337809609 0.011502460768 0.009238269683 0.0093844898516 0.0094483618238 0.017075564768 0.015973924327 0.021270501424 0.0098947293048 
0.011313761666 0.0094622959183 0.0099094242626 0.014050248312 0.015089639843 0.0087257647895 0.0088613224078 0.0081896173349 0.0081844827955 
0.0080310108491 0.0081251356866 0.0081351744582 0.0082526048231 0.0082859961865 0.0087998220475 0.0089167419474 0.0085862745974 0.0086501052492 
0.0091641901798 0.016027279641 0.01688541768 0.017068137498 0.01414721428 0.018955234035 0.0091229356741 0.009854123749 0.010734550831 
0.010994492371 0.012571898952 0.0064345802083 0.0076681824006 0.011956756669 0.017391513366 0.009443165251 0.010188561884 0.0099141383765 
0.0097952715545 0.0088258562947 0.0089121952018 0.0086160019623 0.0084001411912 0.0082382809278 0.0076155971303 0.01038545068 0.0095175810423 
0.010459284758 0.0089016789148 0.0076313568973 0.0070187333967 0.0092600115008 0.012666715995 0.0084304024353 0.0084407397525 0.0092992076358 
0.0097587773888 0.010925991434 0.0094288666965 0.010906737636 0.0081250886793 0.008544797981 0.0052926064261 0.006251325629 0.0079337319531 
0.0067855031402 0.0071972967843 0.007628076291 0.012311780765 0.020855716775 0.015888307036 0.013915276503 0.015520884519 0.014686222257 
0.028551906042 0.016527320352 0.020366105015 0.0085601807764 0.018081188416 0.03605694517 0.019215070715 0.0095174683777 0.009513798836 
0.020749808492 0.028545430761 0.010227802876 0.015380664609 0.016743131702 0.020382530922 0.011147121212 0.0092211387462 0.0079279950674 
0.009683862177 0.010054454477 0.01068281917 0.0094442974745 0.009463545592 0.0093894909202 0.0094166610304 0.0093625768371 0.0093357672872 
0.0092866694983 0.0084539327929 0.0082546448156 0.0082161672754 0.0097234193717 0.011427183127 0.010222617866 0.019062174493 0.017975289526 
0.0089651111876 0.018068883763 0.017779661304 0.017747519008 0.01772578372 0.017771343783 0.0089712491056 0.0086886991575 0.0086758224257 
0.008543679396 0.0085899338999 0.0086928026864 0.0075475813473 0.013023862495 0.010920787336 0.0078688353388 0.018338010252 0.008867778148 
0.0080571993618 0.0064892183472 0.013008575574 0.015883139033 0.013764281195 0.015761662075 0.0083223525188 0.0084276636384 0.0084934536887 
0.0085514933527 0.0072130176013 0.0069904702885 0.0094277818591 0.0096770180289 0.027245840109 0.01873844049 0.0073527219978 0.010223614942 
0.017652584823 0.022576053408 0.0087874319025 0.0074884378842 0.0078247165528 0.0087793956051 0.0079884748547 0.010492427322 0.0097151504359 
0.0093276853837 0.007661640419 0.012462581226 0.017406184309 0.017355303419 0.025945397964 0.019934904178 0.021081964806 0.009834369281 
0.020044272523 0.018639210809 0.018334792218 0.0095984146936 0.0095676327222 0.0097171982838 0.0097586909053 0.0099595914334 0.0098968113811 
0.0099130242267 0.010434810501 0.0074561666028 0.01025723606 0.010596693744 0.010913262399 0.014053044482 0.0099573211213 0.020454161332 
0.01401494956 0.014382349092 0.018691256933 0.018622618619 0.0099507679454 0.010835057821 0.0091823688442 0.018564743931 0.018583240704 
0.025279938798 0.018257139696 0.01053247197 0.016688920586 0.0078750556767 0.0072428825748 0.0066125781851 0.0071980101819 0.0086201466166 
0.0085279725872 0.0080566091674 0.01041373376 0.0079472839313 0.0065642029015 0.0063558260982 0.0069483209821 0.0081553792864 0.0085613885856 
0.0077121686312 0.010113299277 0.0094563059456 0.0084723966416 0.0086394437106 0.0091991019016 0.0085970535325 0.0076464992408 0.0092284899691 
0.018910479199 0.012269705963 0.0097071796124 0.0091997347109 0.010100656826 0.01016853471 0.0092135077642 0.0088807872943 0.0056849674734 
0.0075146830506 0.0095218333966 0.010244266267 0.0083795783051 0.0096717857143 0.011198728906 0.015951257959 0.0090176568379 0.0091029088909 
0.008205615666 0.0082296972048 0.0081756407627 0.0081971552974 0.015683768962 0.014713411166 0.0076937374635 0.028895706318 0.017476108976 
0.0098310240754 0.014570654533 0.0082335464148 0.008236801037 0.0095606799013 0.012559483439 0.020042399394 0.017814289581 0.0095874303137 
0.0089283352457 0.0094222798014 0.0090028755316 0.008199964758 0.0081795251947 0.0082938161055 0.0082975252139 0.0082800256446 0.0098463733142 
0.0090065974351 0.0076522541068 0.0076919537813 0.012694450729 0.011459335461 0.01654248084 0.012630983499 0.0081311391565 0.01626938721 
0.016474508215 0.015021468746 0.0091799946589 0.010236216974 0.008407140533 0.008435953515 0.01957112698 0.017424302256 0.023181921424 
0.020835198084 0.025023468295 0.025872184658 0.0085991970061 0.0087278295728 0.0085920462862 0.0085746981661 0.0086937422246 0.0086717549218 
0.0086664624329 0.0086550228774 0.0087972689954 0.0076074914597 0.0088030390915 0.0090347047008 0.0088012218112 0.0088222958832 0.0090336887808 
0.0088229532466 0.0088591496079 0.0090880214652 0.0088589682149 0.0088816738114 0.009145368668 0.017746066756 0.018333349743 0.017591907454 
0.0087106286853 0.0085677297498 0.0085309844478 0.008537169996 0.0085105675634 0.0085041213598 0.0085072110271 0.0085095582683 0.0085383792557 
0.0084431160214 0.0084803080232 0.0084880531795 0.010158906698 0.0092277801643 0.0096832764784 0.0091561449419 0.013741919072 0.0083929059657 
0.0084074287925 0.010386052193 0.0084416190315 0.0084603550074 0.016795913238 0.017610381744 0.014603703184 0.0065769825891 0.0081133290821 
0.0092378740831 0.017260542369 0.016043511849 0.0087079175708 0.0095109639765 0.0081376751441 0.0079970947904 0.0079721139211 0.017698653094 
0.0362891074 0.014148412206 0.028219916142 0.01582393582 0.0091452262258 0.0087983578399 0.015723541597 0.014063348826 0.0079789499758 
0.0079683237149 0.0079661833877 0.0080049728756 0.0079962017315 0.0080066249928 0.016034480262 0.0092971675877 0.0073711770603 0.0065052603721 
0.0080569395327 0.018033737682 0.02036355899 0.014593600844 0.0065282007816 0.015114161118 0.017972696141 0.0075256624986 0.0075196537879 
0.0074893959346 0.0087902456095 0.0093196523355 0.0080896411182 0.0080894484556 0.0080939321383 0.0081521089351 0.0082009277289 0.0082129862664 
0.0082744858966 0.00826398725 0.0082980376032 0.008157325363 0.008261424952 0.0083289664247 0.0083360772436 0.0083343343125 0.0083171936601 
0.0083848414362 0.0083573041833 0.0083518713774 0.008292240959 0.0083781186821 0.0083085711707 0.0083088403707 0.0082906846379 0.0084199360634 
0.0082907587186 0.0083015826091 0.008409595641 0.008302398366 0.0083207505309 0.0084358986015 0.0084341972003 0.0083723050415 0.016685899296 
0.017183893451 0.01720433364 0.0086239943915 0.0088801772711 0.0088639154731 0.0089596421511 0.017881242447 0.026739655373 0.027288443444 
0.018104386747 0.0090667877176 0.017979068887 0.018456232704 0.026803990061 0.0089531342252 0.0089800572218 0.0092058966894 0.0092106020239 
0.0091619959965 0.0096453470662 0.037444114553 0.019902493613 0.027274238231 0.0287044086 0.010189156224 0.0086596674399 0.0069491461445 
0.0078872530195 0.0078834082866 0.0093278703658 0.028786031562 0.025574331261 0.0085209479098 0.0085061493852 0.008514729387 0.0084836724162 
0.016975129591 0.0083420259311 0.025024160325 0.025206509054 0.0081877883136 0.0079016807049 0.0082743930567 0.0083395204593 0.0082125238403 
0.0081793200612 0.0081582886844 0.0081578473969 0.0081566373293 0.0081501245556 0.0082037909804 0.0082055718833 0.0082803785678 0.0082279991476 
0.0082295039914 0.0081770768974 0.008217704168 0.0082228680289 0.0082375487287 0.0082436401448 0.008243723301 0.0082505511799 0.0081916120974 
0.0081748985625 0.0081431113501 0.0080943555143 0.0080637733129 0.0070112886335 0.0087749795872 0.009167544828 0.0080513268169 0.0087988508485 
0.0076215364906 0.0079863867168 0.0093482969592 0.0085445743155 0.0074901548948 0.0071754465069 0.0087662973938 0.009317856249 0.013297116326 
0.015978849141 0.015980061565 0.015962217387 0.015948233819 0.0079628144476 0.023874680753 0.033462654785 0.015880100063 0.0079851911242 
0.0080401097413 0.015185677461 0.025528218694 0.022586207174 0.015895550277 0.015896728482 0.031842825052 0.027842892393 0.03181294071 
0.031851352278 0.015816156042 0.0079023210642 0.0079015354519 0.0079102065512 0.0078565316799 0.0078499024597 0.007854980803 0.0079130020239 
0.0078538754478 0.007859438283 0.007868736315 0.007831051006 0.0078298874976 0.007867575231 0.0068335121103 0.0078715796164 0.0079185485439 
0.0079100835572 0.0090962095599 0.0087088298789 0.0080716781143 0.0079582746784 0.0079048296226 0.0080341665754 0.0078740049885 0.0081131394943 
0.0076417569916 0.0075189307707 0.0081417508889 0.0077318240828 0.0082951443718 0.0081231330512 0.0081035591054 0.0080984759169 0.0080865393834 
0.0081270766217 0.0081308464582 0.0081777041829 0.0081102672817 0.0081435166288 0.0081067126961 0.008116502304 0.0081246043029 0.0081232992424 
0.008121401185 0.0081299948002 0.0083658962956 0.0081627469378 0.0082509314008 0.024815637805 0.024794141531 0.0082744963562 0.0082734027549 
0.0082738434036 0.0083800851265 0.016551812826 0.033258802254 0.033277637915 0.016441108786 0.016409665142 0.016239805828 0.023943985308 
0.015928697895 0.02409175794 0.024510748056 0.02453766893 0.0080964705275 0.0080939633338 0.0081032990168 0.0080979271895 0.0081121916646 
0.0080382295376 0.0080661331574 0.0080656693378 0.0080762163186 0.0080036415839 0.0080166766108 0.0080142352917 0.0080284925058 0.0079640101842 
0.0086338178228 0.0081044560116 0.0069181304199 0.0069124505576 0.0080498858293 0.0082638425795 0.00810209326 0.0079105321858 0.0077346181984 
0.0075377052561 0.0081619850027 0.0081616476909 0.0080004846952 0.0069131828971 0.0078390022862 0.0078363217757 0.0078359129835 0.0078165333732 
0.0078163672937 0.007818268571 0.0078189446314 0.0078165022629 0.0078174963151 0.0078207582049 0.0078220762082 0.0078165664462 0.0078220712045 
0.0078226230188 0.0078207015074 0.015662752078 0.015709655862 0.014698782536 0.0071857958588 0.0071248133188 0.0080722688943 0.0084285734425 
0.0081673616999 0.0155605954 0.015910147986 0.015919024471 0.031929612097 0.0079125400103 0.0085925126587 0.0081466119823 0.0073224512884 
0.0080982808086 0.0081717343232 0.008355095904 0.0082302887209 0.0081962188138 0.0080644391619 0.008400086412 0.008056269896 0.0078384886089 
0.006540063911 0.0066406197697 0.0078577847818 0.0090042157018 0.0080146163922 0.0079886891802 0.007979921877 0.0079385067883 0.0076729440138 
0.0078436859424 0.0073764041702 0.0075788359694 0.0079446976898 0.0077894568752 0.0069775263942 0.0069828284346 0.0079725985111 0.0084761187912 
0.0084759799013 0.0078244685424 0.0078162663789 0.0078153354649 0.007817233502 0.0078157952852 0.0078178951948 0.0078134489716 0.0078143657802 
0.0078199978482 0.007824573437 0.0078176630015 0.0078219126877 0.0078224787004 0.0078214778046 0.0078174717088 0.0078167790014 0.0078135589373 
0.0078171022658 0.00782814393 0.007815122403 0.0078145034621 0.0078265036127 0.0078383130866 0.0078347652269 0.0080317036983 0.0079264465362 
0.0081825100243 0.0082224356189 0.0079757812048 0.0074670151735 0.0079020775471 0.0083668976916 0.0078552896766 0.007776687214 0.007830778166 
0.0079648217584 0.0080111334232 0.0079968423476 0.0080011780415 0.0079935282481 0.0080440128303 0.015983527877 0.016407306669 0.01617527756 
0.024037324916 0.024169470436 0.031287639487 0.015331751215 0.0080216121942 0.0078128824174 0.01561266187 0.016153404045 0.016236900661 
0.0081205716851 0.016278446604 0.016438415323 0.016430066646 0.033282011462 0.033247932783 0.016958756375 0.0085331796255 0.0085123094388 
0.0087401619616 0.0087215772663 0.008862467387 0.0088583875689 0.0090990138128 0.009100529023 0.009335029867 0.018694097072 0.0093563496114 
0.0096958484963 0.010297713889 0.010054663387 0.0093570547536 0.010363934584 0.0084276023858 0.015748600084 0.018536092488 0.0088863979715 
0.0094784748348 0.0080480471587 0.0074638610204 0.0068783490471 0.0073544519751 0.015274881787 0.01277713968 0.017064989196 0.0098885105194 
0.012374041943 0.006715659533 0.0074798095958 0.010155260644 0.0099459633736 0.0096776903493 0.0076023767132 0.0066018085924 0.0047092320749 
0.019432166827 0.016137813763 0.0080827324295 0.010000552119 0.01046065141 0.0092050796781 0.015806712936 0.012398522393 0.011151349536 
0.0088232128405 0.0083250477772 0.0078408886616 0.0089356829131 0.011546613642 0.011287032747 0.0095743791006 0.010129639836 0.0096309837953 
0.010306386362 0.0085220329015 0.0079131935274 0.0085041965896 0.0091523639672 0.0077881452722 0.0088754008597 0.0089123202886 0.0086504931003 
0.0078207060095 0.008853183895 0.008605088311 0.008700569311 0.0089651811753 0.0093222778229 0.0093654061257 0.0089879728559 0.0089420722167 
0.0089676656602 0.0082285712111 0.0081672456312 0.0088067682065 0.0084832743087 0.010175700747 0.019383832087 0.017898506327 0.027054156955 
0.020000813364 0.018268116317 0.017298837259 0.018661200714 0.034798777846 0.034929881706 0.0057425173142 0.0079177124474 0.005866486506 
0.018652881899 0.033421748589 0.017072183007 0.0085923738427 0.0087379337351 0.0083248473151 0.016714674986 0.0084755844694 0.0083791946346 
0.0088814669094 0.0087974606873 0.016686507837 0.016922580742 0.0080842968321 0.015334042111 0.016557198563 0.016675102556 0.031140459749 
0.015606018164 0.017070089512 0.0085572037647 0.0094433638868 0.0088884029816 0.0076364352194 0.0076679213341 0.0088827444272 0.0091393048675 
0.0087210458349 0.0085866116095 0.0085910344809 0.0085002839754 0.0095750892334 0.0095661927125 0.0087900124713 0.0086045016782 0.0084486618832 
0.0084557306471 0.0085212977902 0.0086981345318 0.0085313554446 0.0087082810685 0.0090757694341 0.0084086964893 0.0087988739289 0.0078510223617 
0.0079300244934 0.0098386402964 0.0078556378176 0.0071837687353 0.008041595655 0.0099193370585 0.0086226460697 0.0085614814963 0.0079862522225 
0.0082924177072 0.0093329676231 0.011205144527 0.011299662921 0.0079774235033 0.0088591664982 0.0094273854225 0.011107484451 0.0097344648036 
0.0081898604664 0.0094054869452 0.0081686452988 0.0083311516911 0.0090154891757 0.0089773358189 0.017998064889 0.017875279033 0.027224792733 
0.015882615188 0.018376703348 0.0080397865824 0.013389594706 0.0083013749245 0.008617496113 0.0091286266396 0.0095334184677 0.010111531477 
0.0087447209874 0.0094060638342 0.0091738473447 0.0084616463106 0.0082051296623 0.0085107504485 0.017409829559 0.019107581284 0.018537788325 
0.027372656187 0.0094158582507 0.016569613631 0.016404747196 0.016552746163 0.01670709261 0.0076775573631 0.0084043717725 0.0085056566999 
0.0083980271648 0.0084337139868 0.0083526132464 0.0077752914788 0.0078528282987 0.0085545620096 0.0086703363985 0.0080504958311 0.0079776149281 
0.0080553867015 0.0079590001998 0.015811625863 0.014884609935 0.021788896503 0.0079201899556 0.007928900613 0.0080290336495 0.0080285288136 
0.0080822309285 0.0065372496202 0.0094459325713 0.0082091569675 0.0085540373497 0.0085155020176 0.0088341114769 0.0080573491594 0.0082071055047 
0.0096334665797 0.030985121192 0.015299204861 0.011553871665 0.010571025323 0.010724879517 0.017226098945 0.018481493147 0.012067718483 
0.0061328886081 0.011084626949 0.010893483002 0.0060769747389 0.012291993045 0.0091621440327 0.012927525211 0.006532667697 0.0045194638567 
0.0064826996838 0.0063734024225 0.0046851744368 0.014796827675 0.017033711047 0.039763566896 0.011339958587 0.019334601775 0.0092205016689 
0.0097416478113 0.0096927827878 0.01113438098 0.010669549074 0.011586611512 0.0098904805443 0.0099511146343 0.019640890067 0.020885014672 
0.0095116883127 0.015713047004 0.0071664409044 0.0078561182973 0.0074165800612 0.012543612861 0.010532001634 0.011988403733 0.011160876904 
0.0087718110352 0.0087008876906 0.0099972632987 0.010774585512 0.01115934431 0.0099812303249 0.0081528724092 0.0074017248645 0.0087671480078 
0.0076846587813 0.0053633789991 0.0046843771327 0.00865888916 0.0083235553207 0.0078809326483 0.0081947947874 0.0084547206581 0.0082743706011 
0.0051783088326 0.0082297155095 0.020556950997 0.016209788642 0.0087776005051 0.013643148184 0.018495349429 0.011032702572 0.010572821112 
0.0091142041665 0.0079494453631 0.009157307299 0.0085411335297 0.0076926383532 0.0063129346316 0.0089426493819 0.0043624114733 0.0054703085909 
0.0074401520302 0.013710126202 0.008188593351 0.0040677327927 0.012779888643 0.012170934779 0.0078376630374 0.023242657545 0.014275814583 
0.010221146234 0.0035706120021 0.0057694907753 0.0051923058238 0.007892978133 0.0097751507441 0.0055140282648 0.011483760297 0.019508654017 
0.014647209381 0.0075586858136 0.0076440598219 0.007640909483 0.0076783366372 0.013628778173 0.029359153961 0.019782510497 0.017341224638 
0.0096723939473 0.004046234389 0.0046755245018 0.007744535615 0.010536388065 0.0068208926776 0.010269595648 0.012583941569 0.0104254192 
0.010407276417 0.011193630327 0.0089275235468 0.013059743926 0.019900826243 0.0063532797408 0.0086327952107 0.0098227951113 0.0097025277633 
0.0050819462189 0.0069316763333 0.0078061995607 0.0065398371915 0.0065241018266 0.013336421448 0.019894989945 0.0083706403998 0.014603946932 
0.0087503478653 0.026377831626 0.017122164811 0.0091943584538 0.0151713033 0.0051652311988 0.0051052236558 0.0052000583148 0.0078532504544 
0.0068697552019 0.0083833980124 0.010579925164 0.018086525263 0.0094466762987 0.010091867143 0.0088060578836 0.0080453093766 0.0081260671735 
0.0095340518706 0.022121598174 0.021081670049 0.012228539711 0.011584218172 0.018812000914 0.01581118632 0.016621792918 0.008317990282 
0.0096520169571 0.012859383732 0.010928161485 0.0058922002784 0.007420797273 0.017352173066 0.01727328403 0.011152272204 0.022903837515 
0.024513045112 0.020239687674 0.027039457958 0.022079940053 0.010886059534 0.0089209862638 0.0081337458931 0.016229823011 0.0089176671827 
0.027074146676 0.026126424651 0.021164046319 0.012818811971 0.0079864980373 0.010342119124 0.01018455679 0.010260797298 0.0081877819546 
0.010590086549 0.0095346500862 0.011452834669 0.0097849335262 0.009102882164 0.0091341288419 0.0095202095053 0.0094374842637 0.010946966612 
0.010421465495 0.0098841988004 0.0098423092938 0.01160429917 0.010361196683 0.010444774064 0.0073616360631 0.015162755364 0.017381837316 
0.0088804194951 0.010942538365 0.011307473272 0.010042600264 0.0096268464591 0.0094034346828 0.0073879509995 0.0081171133252 0.0051660938925 
0.0084654639556 0.0072676715073 0.0081121844437 0.0080872910323 0.0071524367138 0.0063973825788 0.0075755134603 0.0076262885548 0.0074094420595 
0.0074933118761 0.0072401982552 0.010142601163 0.0068019469605 0.0063501992168 0.016896400874 0.02475607532 0.015518567145 0.012621281676 
0.015093918032 0.016588944556 0.019383798243 0.0096628505059 0.0091911396041 0.0089691254315 0.0084049612255 0.0077373312422 0.0086281880359 
0.010067588509 0.010185932953 0.010259979487 0.010297241387 0.0097140806973 0.0097877718038 0.0099525264329 0.010040448848 0.0097883122847 
0.0099922811065 0.010312648609 0.010760372581 0.010439043359 0.010992093968 0.010868497987 0.010536898886 0.008483711389 0.0076201249791 
0.0095887666945 0.0078858368586 0.0075674872757 0.0067812835904 0.0093808940045 0.0096015625329 0.0059467160459 0.0097732055096 0.0095821627302 
0.0095113417444 0.0093751311992 0.0092971626509 0.0074680028996 0.016989892027 0.01594967673 0.0077455456845 0.0088005854315 0.017573570576 
0.019681654495 0.020369483795 0.012054755505 0.012545248847 0.010351295943 0.0097966255776 0.0097860028112 0.0078158612775 0.0090522272186 
0.0078303342695 0.010894683215 0.010992787047 0.0096151543111 0.0095446099244 0.0090919022235 0.0077240686256 0.0090821257067 0.016247429626 
0.019402005842 0.014997120896 0.015915906964 0.014379566497 0.0086720183912 0.010651061099 0.010212600623 0.009468776915 0.0094393964035 