# vtk DataFile Version 4.2
vtk output
ASCII
DATASET POLYDATA
POINTS 17353 float
24.1602 -10.3033 1.55005 24.2614 -10.7061 1.67479 24.1844 -10.5817 1.42533 
24.1675 -10.2337 1.67508 24.1258 -10.2221 1.44117 24.1317 -10.1086 1.67489 
24.3079 -11.0693 1.66378 24.3285 -11.218 1.68744 24.2821 -11.0647 1.53346 
24.2182 -10.319 1.81167 24.175 -10.1784 1.80042 24.0904 -9.92798 1.79999 
24.1264 -9.95588 1.92523 24.2135 -10.2051 1.92492 24.2064 -10.08 2.04952 
24.2466 -10.2056 2.05013 24.2522 -10.1092 2.17574 24.2943 -10.2345 2.17586 
24.3782 -10.2056 2.42441 24.4215 -10.3306 2.42424 24.4228 -10.2057 2.5494 
24.3751 -10.0808 2.54947 24.4176 -10.081 2.67471 24.3683 -9.95498 2.67405 
24.4082 -9.95598 2.79981 24.3558 -9.83048 2.79909 24.3947 -9.83138 2.92476 
24.3423 -9.70488 2.92387 24.3791 -9.70578 3.04947 24.4325 -9.83088 3.04957 
24.413 -9.70698 3.17546 24.3604 -9.58068 3.17477 24.4062 -9.59328 3.31185 
24.3431 -9.45458 3.29926 24.3951 -9.48478 3.43541 24.4466 -9.58908 3.45614 
24.4458 -9.53448 3.56062 24.4875 -9.63378 3.55135 24.4929 -9.65118 3.64014 
24.5172 -9.71878 3.58274 24.4964 -9.67688 3.51212 24.5353 -9.79158 3.5018 
24.4777 -9.68868 3.41036 24.5498 -9.93998 3.31652 24.5698 -9.90128 3.46436 
24.5994 -10.0208 3.38209 24.6127 -10.0277 3.48845 24.6333 -10.0917 3.43405 
24.6478 -10.1363 3.50657 24.6744 -10.2138 3.43286 24.6394 -10.1445 3.36578 
24.6811 -10.2588 3.37997 24.6318 -10.1845 3.26716 24.6718 -10.299 3.2714 
24.5793 -10.108 3.17411 24.5898 -10.0521 3.29056 24.5264 -9.96838 3.18685 
24.4627 -9.73338 3.29918 24.4845 -9.95528 3.04931 24.4475 -9.95528 2.92439 
24.4946 -10.0809 2.92491 24.459 -10.08 2.79889 24.5025 -10.2059 2.79958 
24.4648 -10.2051 2.67408 24.5041 -10.3312 2.67507 24.4666 -10.3301 2.54859 
24.5031 -10.4562 2.54938 24.4601 -10.4557 2.42361 24.4024 -10.4442 2.28791 
24.495 -10.5805 2.42352 24.3929 -10.5808 2.17538 24.3474 -10.5807 2.05023 
24.291 -10.3316 2.07839 24.2705 -10.4564 1.89757 24.2871 -10.6787 1.8009 
24.2225 -10.4837 1.6745 24.3061 -10.8195 1.78912 24.333 -10.7057 1.92423 
24.3701 -10.9559 1.92529 24.3513 -11.0927 1.81162 24.2735 -10.8146 1.65853 
24.3082 -11.3034 1.55009 24.3204 -11.4444 1.56135 24.2911 -11.3312 1.42475 
24.2897 -12.0815 1.67527 24.2614 -11.9564 1.42506 24.3 -11.8313 1.55028 
24.2642 -12.2062 1.67531 24.2105 -12.3316 1.54974 24.2384 -12.0813 1.4251 
24.1248 -12.5811 1.42494 24.088 -12.8307 1.55327 24.0971 -12.6979 1.42475 
24.1135 -12.8317 1.67491 24.0479 -12.9503 1.54667 24.0364 -13.0806 1.67517 
24.1064 -12.9565 1.79994 24.028 -13.2059 1.80038 23.9632 -13.3324 1.6745 
23.9489 -13.2066 1.4249 23.419 -14.4842 1.55 23.4751 -14.4296 1.66055 
23.3938 -14.58 1.67814 23.5915 -14.1854 1.63357 23.4882 -14.3457 1.52195 
24.3364 -11.3589 1.67535 24.3722 -11.5814 1.80025 24.3938 -11.413 1.89295 
24.3685 -11.2477 1.82733 24.4081 -11.3154 1.95105 24.3918 -11.0663 1.95332 
24.4277 -11.0809 2.05095 24.4166 -10.9601 2.05301 24.4733 -10.9641 2.19076 
24.4443 -10.8309 2.17454 24.3967 -10.8309 2.04988 24.4918 -10.831 2.30044 
24.5176 -10.9411 2.32775 24.5436 -10.8349 2.42698 24.5944 -10.8553 2.55416 
24.5764 -10.717 2.55993 24.5232 -10.7055 2.42346 24.54 -10.5805 2.549 
24.5814 -10.5801 2.67418 24.5429 -10.4563 2.67516 24.5919 -10.467 2.81073 
24.6251 -10.6081 2.799 24.6302 -10.4553 2.95187 24.6789 -10.5804 3.02138 
24.6854 -10.4306 3.18171 24.7118 -10.5676 3.16523 24.7099 -10.7173 3.06077 
24.7337 -10.6837 3.20818 24.7377 -10.5862 3.29034 24.7217 -10.4956 3.27378 
24.729 -10.4829 3.37243 24.7415 -10.5664 3.41743 24.7433 -10.6487 3.35618 
24.7224 -10.6181 3.48986 24.7424 -10.7096 3.43499 24.7117 -10.7009 3.51435 
24.7218 -10.7694 3.47719 24.6713 -10.7845 3.54038 24.6999 -10.8385 3.49915 
24.7386 -10.8309 3.41673 24.7428 -10.7705 3.37111 24.745 -10.8454 3.31858 
24.7429 -10.783 3.25569 24.7475 -10.7138 3.31429 24.7246 -10.7912 3.1164 
24.739 -10.8896 3.21699 24.7201 -10.8925 3.0674 24.6904 -10.8014 2.94867 
24.6708 -10.678 2.92442 24.6594 -10.8307 2.79898 24.6176 -10.7052 2.70151 
24.6288 -10.8303 2.67314 24.6664 -10.9535 2.79581 24.6974 -10.9464 2.93453 
24.6982 -11.081 2.92403 24.6704 -11.081 2.79318 24.6959 -11.2082 2.92359 
24.6723 -11.2066 2.80011 24.6948 -11.3349 2.93808 24.6906 -11.5751 2.92705 
24.6482 -11.456 2.67425 24.6459 -11.2059 2.67396 24.6429 -11.0808 2.67386 
24.6097 -11.1087 2.54825 24.6055 -10.987 2.5591 24.6372 -10.9558 2.67377 
24.5647 -11.0856 2.42683 24.4854 -11.1119 2.18359 24.5276 -11.1784 2.2999 
24.4902 -11.2337 2.17276 24.4988 -11.4557 2.16817 24.5381 -11.4302 2.29659 
24.5463 -11.5641 2.3064 24.583 -11.4839 2.42163 24.6155 -11.3306 2.54188 
24.6206 -11.4532 2.54413 24.6478 -11.5812 2.67439 24.6237 -11.5809 2.54805 
24.6425 -11.7064 2.67456 24.6856 -11.6896 2.90782 24.7019 -11.6965 3.0228 
24.6871 -11.7702 2.94401 24.6608 -11.8374 2.82371 24.6902 -11.8629 3.01795 
24.6702 -11.9274 2.94049 24.6898 -11.9007 3.08847 24.6775 -11.9717 3.06254 
24.6752 -11.9624 3.16505 24.6816 -11.9008 3.18872 24.6566 -11.8656 3.24191 
24.7001 -11.8149 3.16327 24.6825 -11.7769 3.2394 24.7062 -11.7089 3.19096 
24.6746 -11.7093 3.28662 24.6248 -11.7658 3.31421 24.6319 -11.8435 3.28917 
24.5429 -11.8558 3.33819 24.5333 -11.9668 3.31987 24.4157 -11.8399 3.38522 
24.4507 -12.0543 3.33167 24.5705 -12.0704 3.27508 24.6071 -11.9464 3.27363 
24.6285 -12.0191 3.21684 24.6396 -12.086 3.1771 24.6617 -12.02 3.12043 
24.6539 -12.0828 3.07147 24.6603 -12.0329 3.00562 24.6404 -12.1307 3.0064 
24.6408 -12.0635 2.89867 24.6189 -12.191 2.91202 24.6216 -12.0815 2.79952 
24.5985 -12.2066 2.79933 24.5982 -12.0817 2.67423 24.6173 -11.9565 2.67445 
24.6416 -11.9565 2.79949 24.6318 -11.8314 2.6746 24.6143 -11.7063 2.53538 
24.6038 -11.8265 2.54074 24.5841 -11.7063 2.42286 24.5904 -11.6022 2.43521 
24.5375 -11.7064 2.287 24.5699 -11.8368 2.422 24.5302 -11.8313 2.29963 
24.5546 -11.9565 2.42406 24.515 -11.9565 2.29946 24.4898 -11.8313 2.17387 
24.4998 -11.7061 2.17341 24.4506 -11.734 2.04967 24.4538 -11.6089 2.0478 
24.5024 -11.579 2.17011 24.4067 -11.6784 1.92606 24.3999 -11.8035 1.92612 
24.3397 -11.7065 1.67497 24.3446 -11.9565 1.80032 24.3241 -12.0817 1.80038 
24.297 -12.2061 1.80097 23.6194 -14.0863 1.53858 23.7134 -13.8265 1.42306 
23.7105 -13.9521 1.67622 23.5216 -14.2066 1.32752 24.0939 -10.053 1.54978 
24.0914 -10.1088 1.42492 24.01 -9.85838 1.42479 24.035 -9.84308 1.66315 
23.9625 -9.73328 1.42445 23.9021 -9.59368 1.41303 23.9856 -9.71798 1.67476 
23.3161 -14.5828 1.32718 23.3144 -14.7066 1.67553 23.2309 -14.7025 1.29605 
23.0382 -14.9503 1.30006 23.1373 -14.8356 1.31634 23.199 -14.8333 1.55163 
23.7642 -9.18748 1.52819 23.8257 -9.33008 1.54966 23.8003 -9.31798 1.41248 
23.6388 -8.97638 1.6436 23.669 -9.04588 1.51266 23.5326 -8.90428 1.53755 
23.9234 -9.58338 1.6756 23.869 -9.46608 1.58104 23.8537 -9.45698 1.45244 
24.0612 -13.2061 1.92527 23.98 -13.4568 1.92482 24.0961 -13.332 2.17446 
24.1364 -13.2061 2.17495 24.1391 -12.956 1.92542 24.178 -12.8312 1.92531 
24.2185 -13.0817 2.2991 24.2144 -13.2068 2.42413 24.2551 -13.0811 2.42466 
24.2587 -12.9563 2.29963 24.297 -12.9562 2.42475 24.2846 -13.2065 2.67542 
24.2421 -13.332 2.67504 24.2799 -13.3093 2.79235 24.2346 -13.4312 2.78734 
24.2433 -13.4447 2.91886 24.2048 -13.5308 2.88456 24.2029 -13.5056 2.97784 
24.1705 -13.6004 2.94101 24.1548 -13.5625 3.03054 24.2004 -13.4628 3.04648 
24.1269 -13.5143 3.08815 24.0575 -13.6026 3.10772 24.1175 -13.6473 3.01999 
24.0242 -13.6952 3.09644 24.0757 -13.7321 3.02638 23.9799 -13.7995 3.09474 
23.9088 -13.7659 3.16012 23.8079 -13.9602 3.17965 23.6988 -13.9527 3.26645 
23.7096 -14.0799 3.22035 23.8006 -14.0995 3.13603 23.7571 -14.1876 3.1427 
23.8292 -14.1793 3.06988 23.7492 -14.2993 3.10192 23.8338 -14.2707 2.98889 
23.7778 -14.349 3.0348 23.8297 -14.3176 2.95149 23.8683 -14.2579 2.89735 
23.8788 -14.2094 2.94771 23.915 -14.1572 2.88074 23.904 -14.128 2.97397 
23.8909 -14.0798 3.04818 24.0068 -13.9083 2.97483 24.011 -13.8434 3.03837 
23.9271 -13.9048 3.09464 24.0449 -13.85 2.96292 24.0388 -13.8949 2.88455 
24.0755 -13.8209 2.88777 24.0786 -13.7721 2.97399 24.1234 -13.6983 2.94313 
24.1537 -13.6382 2.86442 24.1281 -13.6784 2.77534 24.0719 -13.8196 2.78963 
24.0941 -13.7075 2.67429 24.1454 -13.5783 2.67946 24.1765 -13.5637 2.77446 
24.1966 -13.4509 2.66963 24.2071 -13.3322 2.54941 24.0752 -13.5817 2.42438 
24.124 -13.4566 2.4246 24.0506 -13.4566 2.1749 24.0235 -13.7063 2.42482 
23.9692 -13.5823 2.04931 23.8482 -13.7068 1.79996 23.8123 -13.9562 2.04989 
23.8498 -13.9569 2.17439 23.832 -14.0818 2.29925 23.7315 -14.3147 2.30863 
23.7535 -14.332 2.42461 23.8648 -14.0816 2.42453 23.8654 -14.225 2.67508 
23.9002 -14.0597 2.53345 23.937 -13.8315 2.29963 23.9717 -13.8318 2.42449 
24.0043 -13.8312 2.55006 24.0387 -13.8324 2.67499 23.9192 -14.0939 2.66326 
23.9535 -14.0765 2.79402 23.9 -14.1833 2.77131 23.8428 -14.3224 2.79288 
23.8023 -14.3605 2.67485 23.7301 -14.5409 2.78229 23.7382 -14.4845 2.67437 
23.6966 -14.441 2.40743 23.6351 -14.5702 2.43606 23.6834 -14.6063 2.71928 
23.6191 -14.7071 2.6744 23.6534 -14.6901 2.79818 23.5792 -14.8172 2.77424 
23.5462 -14.8326 2.67454 23.5887 -14.7078 2.54934 23.5158 -14.8276 2.54971 
23.4655 -14.9694 2.70282 23.432 -14.9573 2.54958 23.4793 -14.8299 2.42305 
23.4402 -14.8329 2.29914 23.3575 -14.9539 2.29753 23.3985 -14.8292 2.17344 
23.4779 -14.7068 2.17578 23.518 -14.7065 2.29946 23.5899 -14.5823 2.29902 
23.5546 -14.7072 2.42456 23.5888 -14.4423 2.06669 23.4285 -14.5822 1.80001 
23.3963 -14.6981 1.92404 23.3567 -14.6983 1.79852 23.502 -14.4499 1.8001 
23.5708 -14.3314 1.82771 23.6558 -14.3165 2.07679 23.6792 -14.404 2.28076 
23.7232 -14.0815 1.9265 23.6521 -14.0751 1.67476 23.7429 -13.9513 1.79997 
22.7035 -15.3816 1.57032 22.5768 -15.5328 1.66978 22.5293 -15.5161 1.52621 
22.8624 -15.2733 1.67959 22.7391 -15.3068 1.44017 22.4458 -15.5898 1.5501 
22.3254 -15.6687 1.54903 22.1955 -15.6793 1.29962 22.331 -15.5678 1.18452 
22.196 -15.7481 1.55518 22.069 -15.7718 1.42789 22.1946 -15.7089 1.42565 
23.8141 -13.7232 1.69162 15.9311 -15.4887 1.53802 16.0679 -15.5064 1.17473 
[...]
CELL_DATA 34702
FIELD FieldData 1
Area 1 34702 double
0.044166021097 0.015405602868 0.0098702614809 0.010637310599 0.0096586083025 0.0082896110125 0.016756394441 0.016874618718 0.016835269533 
0.017049693126 0.0085073881 0.0086204537894 0.0086430266226 0.017442784493 0.017455733936 0.0087242979548 0.0088065708097 0.0087821710076 
0.00887977421 0.0088613133854 0.0089004695168 0.0088777859435 0.0089368242188 0.0088955679004 0.0088126780037 0.0088186477859 0.0088687667699 
0.0097108726379 0.010623842375 0.010410439259 0.0085487139959 0.0067327102718 0.0055023438447 0.0048658020141 0.0037121207031 0.0024666167726 
0.0045326930061 0.0062730082209 0.0053182945866 0.017737651337 0.0081384468727 0.0080409203784 0.007003979617 0.0038918808546 0.0037133953834 
0.0046993692811 0.0044245700813 0.0035779388169 0.0063772786725 0.006791136592 0.0056496264565 0.0077373056415 0.0086729266119 0.0077169327562 
0.015134392619 0.018740165521 0.017388364415 0.0087315340517 0.0086887880734 0.0087321890291 0.0087053193428 0.0086786727612 0.0086809743415 
0.0086468305336 0.0086119420045 0.0086685909442 0.0086376345969 0.0086211124656 0.0086797169742 0.0086221010523 0.0095163582355 0.0094282812826 
0.018870385194 0.0093109695649 0.030600124088 0.017386491897 0.0222927637 0.014267109454 0.024680538368 0.024482332986 0.014638738284 
0.01443524814 0.009060240187 0.0094383013922 0.017997638758 0.018133008499 0.020844511793 0.017242021716 0.0091223316402 0.024047320243 
0.024583337973 0.0078351789519 0.0078026228279 0.017357115611 0.025269761152 0.010304197189 0.017952498924 0.0093529322613 0.0086976130709 
0.018351626511 0.021524454079 0.016732806476 0.0083642527945 0.016126811101 0.012956578933 0.0062955603757 0.0090297127934 0.0099878094888 
0.0086984349565 0.0088429655858 0.016994052115 0.0090763316739 0.0083989532214 0.0075158096882 0.008355947195 0.0095456686313 0.0095055446167 
0.010104848627 0.0092341357105 0.0085189166955 0.0085237442469 0.0086060769607 0.0092449764585 0.009628457328 0.010619180639 0.01581364624 
0.016187169209 0.010275316471 0.01050982669 0.0095082070355 0.0070337288221 0.0056633858352 0.0046517520601 0.0058021582039 0.0046320853494 
0.0046680978815 0.0053705779529 0.0036396644261 0.0027530324755 0.0031022632413 0.0025662407535 0.0030720582138 0.0033006694239 0.0033030676268 
0.0039961277926 0.0036371671168 0.0045884526072 0.0041341775814 0.007176225542 0.0073293289974 0.0075669841527 0.0084333152383 0.0066237867351 
0.0082359877067 0.0099016439247 0.015936233013 0.0099721544927 0.008184512466 0.0091855955722 0.0079671224173 0.0087379417684 0.0095324491623 
0.0085336325624 0.0085096787901 0.0078890602573 0.0079562060915 0.01753052618 0.039595301751 0.016117652081 0.0080639463362 0.0081402579063 
0.007787191193 0.0074689420692 0.0076606237948 0.007976794848 0.0078250401292 0.0079974833635 0.0154109133 0.019995520608 0.010145592617 
0.0078403999877 0.0089577619442 0.015238643291 0.014896503831 0.0091465592414 0.0085789319037 0.013537031748 0.032420006682 0.028891935531 
0.0079150482517 0.0081551122504 0.0083271253877 0.0082129067346 0.0080586427513 0.014855990046 0.014612152217 0.0067175710424 0.0045603183028 
0.0061764664678 0.0082055335671 0.0073951275941 0.0038250982476 0.0049785228409 0.0035819591692 0.0031268854232 0.0015771744119 0.003074604585 
0.0037777121067 0.0036923440976 0.0034346039591 0.0031478688059 0.0035670343072 0.0041681751895 0.0057390959823 0.0076792305662 0.01117249023 
0.0066442079266 0.0051409932185 0.0045671336071 0.0037985864911 0.0033945838852 0.0032358949569 0.003506729191 0.0033148160187 0.0032871111595 
0.0032717942054 0.0053891975898 0.0065647989913 0.0066356619243 0.0072485329923 0.0080999805411 0.0080662349824 0.0080589197996 0.0080180853378 
0.0091915144741 0.0095327899036 0.008906638658 0.0082475452315 0.007032088237 0.0060649756622 0.0073501028857 0.010221262808 0.0094210613148 
0.0080370742263 0.0077689969136 0.0082401968467 0.0083241213677 0.0082931873264 0.0083152431671 0.0083407640177 0.0084002246429 0.0076082555189 
0.0081638471233 0.027045604748 0.0081894485472 0.018555374195 0.0082791873745 0.0082617955843 0.022432034585 0.026529535558 0.024092616766 
0.024607473938 0.0082237349449 0.0082498377392 0.0082553111434 0.02872054024 0.026588160562 0.014375136213 0.0079002839215 0.016642776874 
0.025763134684 0.019179904022 0.027688355049 0.017826554633 0.010525534766 0.012269526396 0.019546406123 0.017100782428 0.009632743973 
0.0099176446884 0.016790756842 0.016844345148 0.016971947218 0.034202300555 0.017164003063 0.034028396118 0.016959997829 0.042823089258 
0.017157823526 0.0085998076485 0.008571668087 0.0085819428293 0.017117771672 0.017233371408 0.0079907390362 0.007750710581 0.0086168918896 
0.0063885616651 0.0040629522858 0.0042776600829 0.0041764653713 0.0036349634593 0.0038415150938 0.0045271637334 0.005229447469 0.0054911322538 
0.0044671303299 0.0052834539956 0.0057909085297 0.011200662828 0.014277378314 0.0089662130627 0.0087221554207 0.0060289173022 0.0045711975629 
0.0060811673481 0.0080885766547 0.0046897297167 0.0030148305549 0.0026453616577 0.0029792606919 0.0032544977332 0.0037473308077 0.0056142496488 
0.0051924211907 0.009801955243 0.0093587335523 0.0093753077106 0.011694209713 0.0043385438834 0.0027905416297 0.0030521535282 0.0032246182284 
0.0034769256712 0.004510740043 0.0070481712808 0.0042049306391 0.0044769283907 0.009429832296 0.0074639755692 0.0081194426988 0.0070731848261 
0.0060941621727 0.0068372162755 0.0085251162007 0.0080508241465 0.035024777035 0.0086388661448 0.017278757306 0.034428678612 0.017187640541 
0.017383285412 0.017462322585 0.034609580819 0.017300055219 0.025961910924 0.052205049093 0.026213106735 0.0087839181927 0.032292552396 
0.015074498964 0.017643403814 0.035250897341 0.011717463184 0.016605698843 0.026306961171 0.016059024705 0.016079331456 0.0087619179671 
0.017504474679 0.0088136598833 0.016080932641 0.019335189931 0.018935375032 0.0075861138022 0.0072177838278 0.0078903700374 0.0089484859215 
0.014413287499 0.0076579056096 0.017905001793 0.016955792377 0.019231579523 0.019073926573 0.017461627426 0.0067839393971 0.0088656729997 
0.0073921698694 0.009268934847 0.0089828542706 0.010333039788 0.012130183724 0.010036658896 0.010021194168 0.019012303201 0.0095746736067 
0.00953605065 0.009517341305 0.0092185745958 0.0092684600519 0.0092723113158 0.011012550806 0.010099631322 0.027625622326 0.050737796281 
0.017438667443 0.0088569301615 0.0085681205886 0.010888771504 0.010855116673 0.019310269218 0.015678388446 0.016942741425 0.019473127534 
0.015513928579 0.011948163278 0.031774298289 0.0071081490854 0.012808175708 0.035096226733 0.036642493893 0.018059143239 0.0086409362632 
0.0090090556427 0.015915377403 0.017059970644 0.0086580647877 0.029111890417 0.0094208162763 0.014794003201 0.04451022815 0.029929697057 
0.023492497388 0.031370015364 0.017772909215 0.0091175230127 0.016654001097 0.017161278493 0.017829894113 0.01714869532 0.0086806063245 
0.0087318449574 0.0087408164402 0.00877052845 0.0087418898679 0.0088813961486 0.0089099777044 0.0089629087928 0.0090194545915 0.0090879502853 
0.0091340631163 0.0092227012726 0.0091555528035 0.0091043333975 0.0091195276335 0.0093137659148 0.0092635201802 0.0084390296225 0.017287291331 
0.02868862297 0.014333920243 0.0111939484 0.0085650593051 0.0092477571419 0.0068844529157 0.010474801962 0.019096682866 0.012475166167 
0.020240540923 0.011939831263 0.013262036184 0.01475703598 0.0079644566842 0.0070523935154 0.0089796946699 0.0053498045878 0.002294068057 
0.0028604796633 0.004532342262 0.0048095355477 0.0070131554782 0.0028435297267 0.002797650994 0.0031577134045 0.003245819364 0.006512335341 
0.0082652714455 0.0094265211366 0.0091068934771 0.010242562891 0.0094326426895 0.0066453650056 0.0068059779078 0.00662162229 0.0079596714067 
0.019789631856 0.0040884277514 0.004519191913 0.0074920002363 0.010316257336 0.0088203355625 0.0051391625528 0.015211683647 0.0099659422868 
0.0091437156399 0.013170485374 0.0096926827144 0.010410458735 0.0054741869461 0.010653995689 0.0096047256522 0.018393690942 0.010527750092 
0.0073130454106 0.0077555073345 0.0092069351137 0.0092494531229 0.0092209457067 0.009374439748 0.0093679999073 0.0097636081331 0.0083661728266 
0.0072204985705 0.0073550614127 0.0062940156064 0.0068729284289 0.0084053861654 0.0094276117899 0.0058912163475 0.0049725251054 0.0060506841041 
0.0059868689481 0.0039641358345 0.0058846487973 0.00548016284 0.0025889009551 0.0035257146916 0.0037292353955 0.0042272464576 0.0039149315071 
0.0038710175205 0.0038148181912 0.0033072097366 0.0022880102446 0.0020283793403 0.0034473457864 0.0043714904479 0.0032747722089 0.0024131659605 
0.0029385248614 0.0027934129877 0.0043236976254 0.00228061505 0.0042198127469 0.0034920747779 0.0035441372439 0.0029719340985 0.0044879407212 
0.0035893935185 0.0065730293428 0.0060231603381 0.0044170497165 0.0056644091262 0.0098743691403 0.031196815046 0.013413426277 0.016106274513 
0.013814402092 0.0090560980919 0.0055175809992 0.0039164894222 0.0055513003464 0.0045353351041 0.004371796155 0.004612679757 0.0037404689928 
0.0056500431002 0.006409206485 0.0071595381219 0.0073387740333 0.0073759224255 0.006227854367 0.0068866948681 0.0079387871993 0.0090177413376 
0.0085298024082 0.013968348023 0.0094276444963 0.0063950404084 0.0051426766934 0.0046106232259 0.0040949778662 0.0030835924226 0.0031429311048 
0.0022335316563 0.0021754068145 0.002192633775 0.002205337391 0.0031993434445 0.002880757814 0.0042941453482 0.0024647159923 0.0024725785784 
0.0011274381066 0.0015426503755 0.0025657006913 0.0035341021897 0.0038861785959 0.0029071869963 0.0031154466488 0.0067204506449 0.0054347309566 
0.0066387099071 0.0086805742019 0.003779546704 0.00348019694 0.0027060070277 0.0029213891634 0.0025496388762 0.0033229206808 0.002148302873 
0.0021938736791 0.0018989171985 0.0020630111964 0.002678492454 0.002484888271 0.0027055711213 0.0029471127546 0.0032128179122 0.0033234243857 
0.0040545946304 0.0054733769153 0.0053841064167 0.0037985428214 0.004393229803 0.0042471555797 0.0044717087886 0.0065606148597 0.0062224150852 
0.0064550283754 0.0056361511304 0.0057048862472 0.0050839413259 0.0029595184478 0.0031857595089 0.0048020368144 0.011715768849 0.017319777078 
0.018682157448 0.0097347114085 0.0050252951842 0.0042240376685 0.0039748487298 0.0033472273462 0.0032985686913 0.0039799421003 0.0042901085715 
0.0051832981559 0.004603995697 0.004343871355 0.0060901807849 0.0089127418247 0.0092213300314 0.018594645781 0.016462521518 0.0086186059327 
0.0099025192166 0.0067350347666 0.009132702207 0.0094829570743 0.01032693469 0.023368182268 0.031871877601 0.031109510359 0.013708519535 
0.0060026360887 0.0028974147184 0.0022619256554 0.0024513824502 0.0025217680324 0.002706314563 0.0037588015313 0.0066253353304 0.0032611340073 
0.0037644277771 0.010137602657 0.0073570804191 0.0075429850725 0.0067718845112 0.0064402363952 0.0086555707864 0.0056981514593 0.0059434707657 
0.0078462489831 0.0051012164844 0.0048718839434 0.0033983131296 0.0032621366014 0.0026864583224 0.0039629188323 0.0024885390522 0.0019189513174 
0.0024412870915 0.003182163461 0.0041369226486 0.004466995 0.0041228242407 0.0066475212922 0.0091614624028 0.0056649236983 0.0048453929426 
0.0037375458021 0.0039720487411 0.0043772906567 0.010671255977 0.011359715073 0.0067094887596 0.0083717341444 0.0072417376351 0.0070054628504 
0.00913681003 0.027764690433 0.015678680911 0.0078757315295 0.024758470117 0.008194322314 0.0082064855731 0.0081675875521 0.0082263625567 
0.0082078737261 0.0082594731865 0.0082416881359 0.0083118970446 0.0082591739418 0.0083437112735 0.00835669454 0.0084629197888 0.0083491315414 
0.019012164998 0.0090059548476 0.016120252306 0.0083969698135 0.0084453189536 0.016966701323 0.025461933015 0.016676378506 0.017006177912 
0.0084054688907 0.0084482394109 0.017022715112 0.03426875055 0.034194355231 0.025547160713 0.033689339404 0.016974376377 0.0083335961487 
0.033170045686 0.016609747438 0.017027444821 0.017533708895 0.051089255751 0.018272495304 0.015856868831 0.024883926758 0.0083801487779 
0.0084342111562 0.0081369692363 0.033650021887 0.0084149106874 0.008452918478 0.008559974855 0.0085714645323 0.017072657107 0.016859568118 
0.017011928601 0.01711819231 0.017056493297 0.033805494493 0.03275707404 0.017084752745 0.01696916693 0.0067419527627 0.015552170164 
0.0074553641616 0.0078800279346 0.0061440346706 0.015632417119 0.0084155553294 0.016671634477 0.017021563011 0.008371549581 0.0083591848302 
0.019032512695 0.0098662666522 0.0084092080456 0.008323986159 0.0082876018921 0.033159226991 0.015652623444 0.023509107838 0.012200066195 
0.0066477806238 0.006005038818 0.0053253713548 0.0044394766729 0.0044685886702 0.0034012518717 0.0073161200964 0.0053673942115 0.0038944074686 
0.0068435229564 0.0050311217438 0.0051662902271 0.0049396294876 0.0075197065629 0.0061300986291 0.0077320265442 0.013673212863 0.0098843265766 
0.016083803911 0.0072398450272 0.030019166068 0.017279064521 0.018380635542 0.011658960974 0.011536304135 0.0097771029283 0.0074354137229 
0.0058637911831 0.015105966522 0.016777781213 0.009613767356 0.0099860284546 0.0073196499184 0.0052618291495 0.0063713983875 0.011283641248 
0.013376932741 0.015048182069 0.0087185015523 0.0067314616306 0.0055932042761 0.0048026646968 0.0074058744693 0.0054931326108 0.0081347921857 
0.0065325427078 0.0033949703392 0.0024758090039 0.0038870779896 0.0069823206039 0.0054292555662 0.0052038004246 0.0045528209064 0.0091497235267 
0.005643727327 0.0066751666158 0.0037911364464 0.0031780089009 0.0046788183892 0.0079486911788 0.0077566487226 0.0065216247969 0.0040373365582 
0.005983412643 0.0068951908417 0.011285242706 0.010009590953 0.0059612480197 0.0045903920911 0.0083253121979 0.0075934617955 0.0086679166477 
0.00840676753 0.0077250249099 0.0049712012225 0.0074346594146 0.0039400243401 0.006487990637 0.0072380185364 0.0092811254187 0.004115801357 
0.0042013657232 0.0049914853623 0.0050860296394 0.0072100243754 0.0082381499361 0.0041902102425 0.01195395884 0.0081873137279 0.0066857972554 
0.0063845961599 0.0060328052821 0.0045612631493 0.0038951039052 0.0040674230413 0.0036880315769 0.0047108172568 0.0056503514473 0.0061166964875 
0.0031597609195 0.0031433880666 0.0060282355011 0.0057288110328 0.0052264680617 0.0038547211463 0.0035991112054 0.0038828049685 0.0058526526562 
0.0055151084858 0.0043424881125 0.0050222862797 0.0062357550798 0.0084191336971 0.0077891892186 0.0081590477956 0.0080675558719 0.0097787693243 
0.0093306384415 0.010119913808 0.018210733316 0.013639960727 0.0094490094275 0.0075632039907 0.0072707470397 0.0067264705316 0.010482324336 
0.0099363015903 0.0094925979872 0.0073750069594 0.0092150137182 0.0092245231475 0.012202442748 0.028269712763 0.019907955512 0.010062229577 
0.0078058246366 0.0046164549449 0.0094178676469 0.0089348347525 0.005483740691 0.0051955636029 0.0076652068724 0.009274310622 0.020451004478 
0.038979112881 0.020687282571 0.0091676175958 0.0097574287409 0.0096878010059 0.0097414539811 0.0090856320826 0.010398644855 0.0082113529808 
0.014706834905 0.020978969241 0.015426477723 0.024069202069 0.0075830742678 0.017979758173 0.019660540753 0.0049224653591 0.0068651779055 
0.0075413384233 0.0054634796789 0.0068534106467 0.0078164106881 0.008872248867 0.0075185470745 0.0065584571025 0.0066998589876 0.0072057695052 
0.0082735238551 0.013295693463 0.014969376954 0.011046812699 0.010624311046 0.0091928465242 0.0091858042854 0.0093728254603 0.0095109804208 
0.0093270942802 0.0097951151281 0.0097633025248 0.0089130654253 0.0089376106263 0.012127601497 0.010839600109 0.0099516985698 0.0091098989746 
0.010255838147 0.010666171157 0.0091368552236 0.0090981864621 0.0066410701104 0.0083834345105 0.011079714297 0.010194689445 0.0087292657288 
0.010141553945 0.010790625728 0.010325429454 0.010286392832 0.010165764815 0.0084765846894 0.010286143758 0.010593438009 0.0099749840459 
0.0095981067447 0.009976978934 0.0096534629819 0.0078610056303 0.005874458444 0.009808691886 0.023544633344 0.017488249599 0.016393582401 
0.0093150483416 0.010285810078 0.0072987855369 0.011100798191 0.01432810362 0.013172244402 0.016002720861 0.0095586418325 0.011210885446 
0.012487590814 0.017082713658 0.011141452301 0.0046388239025 0.0064640721329 0.0057816785552 0.0036308061813 0.0028172289258 0.0030486254822 
0.0030581329558 0.0038286771325 0.0035838215349 0.0030530925065 0.0021828740283 0.0023071339808 0.0035175111279 0.0045027058585 0.0024548806339 
0.0021534215554 0.0011112903982 0.0019966679985 0.0031783584417 0.0029803311096 0.00278883483 0.0022145418107 0.0022184126598 0.0018381521894 
0.0022092567993 0.0025545545885 0.0027068865634 0.0028674596777 0.0034468150813 0.0030205320419 0.004197520151 0.0070653960957 0.0090992305171 
0.0043555215191 0.0033536237137 0.0053987914296 0.0051616629379 0.0033006411625 0.0034119096273 0.0030884036364 0.0023081383486 0.0021769249533 
0.0017080305285 0.0060240875619 0.005023870547 0.0030953965192 0.0044550480111 0.0048525488 0.0062142286826 0.004734604291 0.0025381058581 
0.0026776279839 0.0023971893726 0.0027268299534 0.0024466805663 0.0031878302182 0.0025883058163 0.0035656526698 0.0039627621378 0.0042765910486 
0.0045486405049 0.0041223466065 0.0044107603327 0.0032929085164 0.0026432000023 0.0027166301272 0.0043372091285 0.0039505808187 0.0076444634798 
0.0036746550358 0.0047260034898 0.0042294918821 0.0036621503913 0.0024785805322 0.0022916696078 0.0031814749011 0.0031290388241 0.002847450656 
0.002676499682 0.0041660152856 0.0038808297408 0.0027164947966 0.0019165058059 0.0024122311867 0.0028642086532 0.0032918946546 0.0033730982007 
0.0032081259692 0.0040680429292 0.005546072457 0.0046291338545 0.0055044843135 0.0097731065264 0.0055903483585 0.0064968142267 0.0067287042556 
0.0037741202878 0.0047396423945 0.0036312133799 0.0074145641894 0.0059894456387 0.006347064572 0.0069022916154 0.011629975081 0.0063869534933 
0.0056196051799 0.0084538759172 0.0087859233398 0.020423483667 0.009398110104 0.0088976580648 0.0092194712774 0.0083316043896 0.0082849900273 
0.0081163054537 0.008108863924 0.0098786923536 0.0089466988205 0.0082703315805 0.0072499801154 0.0076612886299 0.006931960171 0.0063045929475 
0.0044678178455 0.0079575729973 0.007957717958 0.0085061163825 0.0071139061286 0.0053465440797 0.00259051113 0.0030057078287 0.0031247192061 
0.0033972852502 0.0030523900037 0.0027823464523 0.0017030982179 0.0015261355769 0.0014935226488 0.0034270386658 0.003771305942 0.0020211564033 
0.0033626563822 0.0028732841447 0.0031135135464 0.0050921635447 0.0048563789984 0.002026992617 0.0016901596288 0.010095198025 0.018260678084 
0.0089896906068 0.0086038636146 0.0091124186271 0.0074440614403 0.0072615951398 0.0074763465918 0.017821380633 0.0098494855759 0.01196647533 
0.0076751283271 0.0073142964855 0.0071300159351 0.0088695594141 0.010763079105 0.0058327162029 0.0055331808052 0.0053436652924 0.0099586709216 
0.0060007686564 0.005323509154 0.0025480975435 0.0069770494569 0.0051540258766 0.0052914544491 0.0056024861295 0.0070848022111 0.0086029409327 
0.0079223857479 0.0080688409933 0.0069157278987 0.011416040762 0.011783459642 0.015712706652 0.017056111177 0.010125790834 0.012781221275 
0.010287553281 0.0085343456582 0.022842329568 0.0061163467319 0.0069426570954 0.0072619766047 0.0094638530486 0.0075971934455 0.011060129465 
0.011598948208 0.024950256182 0.019826434162 0.011724466848 0.021044394692 0.018060201057 0.019314498843 0.018727567963 0.0099367696772 
0.0092926213634 0.0084820951363 0.0084359354905 0.0084349257752 0.0081775870373 0.0086056629979 0.008641581919 0.0086394052993 0.0092846581392 
0.00689959199 0.0062906514398 0.0079776060139 0.018841246982 0.01585609076 0.01770470613 0.014188403356 0.013830800199 0.011398622754 
0.009368464119 0.0097935509512 0.0084770390414 0.011258918425 0.01242319865 0.011156340202 0.01176230055 0.011543121309 0.013711201214 