# vtk DataFile Version 4.2
vtk output
ASCII
DATASET POLYDATA
POINTS 19381 float
16.2249 -15.6431 1.08017 15.9825 -15.5825 1.21379 16.0994 -15.6079 1.06821 
15.8848 -15.5593 1.34208 15.6289 -15.4857 1.4583 15.9566 -15.5686 1.09931 
15.9861 -15.5948 1.42718 15.865 -15.5633 1.48173 15.9864 -15.6074 1.67747 
15.7293 -15.5259 1.58018 15.7315 -15.522 1.45726 15.6106 -15.4823 1.55229 
15.4805 -15.4331 1.6093 15.3613 -15.3839 1.55234 15.361 -15.3802 1.42734 
15.5944 -15.4641 1.3469 15.736 -15.5037 1.17737 15.3554 -15.3638 0.927175 
15.477 -15.4105 0.960284 15.3576 -15.3702 1.20025 16.6107 -15.7654 1.33005 
16.4858 -15.7313 1.30219 16.6119 -15.7593 1.20514 14.863 -15.1667 1.23323 
15.1204 -15.2721 1.07814 14.9853 -15.2271 1.42738 18.1113 -16.0149 1.33015 
18.3614 -16.032 0.955119 18.4864 -16.0583 1.08007 18.4862 -16.0661 1.20502 
16.1154 -15.6327 1.45519 16.2362 -15.6614 1.33004 16.3612 -15.7045 1.48276 
16.4861 -15.7416 1.5522 16.2355 -15.6868 1.70497 16.3608 -15.7204 1.74388 
16.4866 -15.7463 1.67727 16.7357 -15.805 1.58009 16.7356 -15.8114 1.70503 
16.8681 -15.8344 1.59994 17.1106 -15.8899 1.705 17.1109 -15.8815 1.57987 
16.8671 -15.8232 1.4594 17.236 -15.8906 1.45509 17.236 -15.9027 1.5799 
17.3611 -15.9213 1.57989 17.236 -15.9099 1.70502 17.3612 -15.9275 1.70506 
17.6207 -15.9561 1.57985 17.7475 -15.9789 1.7016 17.8708 -15.9887 1.58 
17.8618 -15.9923 1.70509 17.9863 -16.0091 1.58005 17.9867 -16.0201 1.83012 
18.111 -16.0314 1.58007 18.1112 -16.0433 1.83009 18.2361 -16.0569 1.70511 
18.4936 -16.0811 1.48104 18.505 -16.0916 1.68849 18.2361 -16.0642 1.8301 
18.4865 -16.1058 1.92736 18.3448 -16.0955 2.09696 18.2401 -16.0793 2.08283 
18.112 -16.0614 2.20526 18.2364 -16.0971 2.33027 18.1154 -16.0742 2.33248 
18.1085 -16.0908 2.46038 17.9862 -16.0782 2.45467 17.9865 -16.059 2.33033 
17.8612 -16.0632 2.45515 17.8611 -16.0327 2.20514 17.9868 -16.0435 2.20542 
17.9867 -16.0356 2.08009 17.8613 -16.0203 2.08017 17.9864 -16.0294 1.95494 
17.8617 -15.9999 1.83017 17.7361 -16.0041 2.08015 17.7523 -15.9864 1.83074 
17.6126 -15.9848 2.08042 17.361 -15.9399 1.95519 17.3612 -15.9313 1.83023 
17.2365 -15.9161 1.95532 17.2362 -15.9113 1.83018 17.1113 -15.893 1.95531 
17.111 -15.8903 1.83018 16.8613 -15.8405 1.8751 16.9802 -15.8658 1.9346 
16.8611 -15.8504 2.01762 16.7431 -15.8194 1.96021 16.7363 -15.8123 1.83012 
16.6106 -15.7985 2.08012 16.3764 -15.7331 1.94973 16.2415 -15.6948 1.97132 
16.3582 -15.7308 2.05234 16.3612 -15.7321 2.17733 16.4802 -15.7646 2.20504 
16.611 -15.8016 2.20508 16.7421 -15.8319 2.10106 16.7358 -15.8364 2.23284 
16.8607 -15.8636 2.16075 16.9801 -15.878 2.07539 16.986 -15.8916 2.20491 
17.1112 -15.9042 2.08006 17.1111 -15.9151 2.20491 17.2363 -15.928 2.08001 
17.236 -15.9387 2.20495 17.3608 -15.9517 2.0799 17.3623 -15.9678 2.32954 
17.4866 -15.9745 2.20529 17.4869 -15.9867 2.33113 17.6135 -15.9941 2.20527 
17.6115 -16.0075 2.33032 17.7359 -16.0164 2.20508 17.6112 -16.0257 2.45512 
17.4863 -16.0038 2.45514 17.4863 -16.0223 2.58022 17.611 -16.0451 2.58019 
17.8612 -16.0816 2.58064 17.6112 -16.0674 2.70561 17.8614 -16.1094 2.70474 
17.6153 -16.0968 2.82467 17.8612 -16.1374 2.83035 17.986 -16.1284 2.7043 
17.9861 -16.1552 2.83036 18.1115 -16.1425 2.70519 18.1112 -16.17 2.83112 
18.2371 -16.1602 2.70522 18.2374 -16.1828 2.83204 18.3605 -16.1878 2.70477 
18.3572 -16.2082 2.82986 18.4864 -16.2042 2.69465 18.486 -16.1832 2.57981 
18.6114 -16.1958 2.58048 18.616 -16.2242 2.69937 18.7348 -16.2103 2.58014 
18.7365 -16.186 2.45565 18.8615 -16.2016 2.45146 18.8614 -16.184 2.33032 
18.9889 -16.2007 2.33172 18.9863 -16.2211 2.45647 19.2385 -16.2461 2.33135 
19.1116 -16.2056 2.21073 19.3608 -16.2355 2.07985 19.3611 -16.2666 2.3304 
19.4861 -16.2663 2.20504 19.4864 -16.283 2.33054 19.7362 -16.2739 2.08009 
19.6114 -16.2995 2.33067 19.8615 -16.3015 2.20589 20.1113 -16.2848 1.95518 
20.1112 -16.3044 2.08042 20.2363 -16.2894 1.95545 20.2362 -16.3126 2.08054 
20.3615 -16.2954 1.9556 20.3614 -16.3189 2.08038 20.6112 -16.3186 1.95501 
20.6298 -16.3483 2.08633 20.7363 -16.2977 1.83056 20.6112 -16.2958 1.83021 
20.8615 -16.2658 1.57981 20.9866 -16.274 1.70502 20.9865 -16.2994 1.82967 
21.1118 -16.266 1.73299 21.0951 -16.2949 1.84645 21.253 -16.2292 1.67111 
21.1118 -16.2443 1.60771 21.362 -16.1784 1.47987 21.5062 -16.1669 1.57754 
21.3402 -16.2406 1.77985 21.5479 -16.1902 1.73731 21.7439 -16.0917 1.51027 
21.733 -16.0832 1.43679 21.8593 -16.0791 1.65375 21.8477 -16.1068 1.7572 
21.779 -16.1232 1.73182 21.8846 -16.1104 1.81953 21.8927 -16.0814 1.71682 
21.913 -16.0915 1.78591 21.9131 -16.1454 1.9281 21.8176 -16.1469 1.86691 
21.8749 -16.2264 2.06466 21.7621 -16.2121 1.98874 21.8523 -16.177 1.97201 
21.7424 -16.2746 2.11123 21.8505 -16.2684 2.1331 21.8259 -16.3123 2.19905 
21.7493 -16.3252 2.22699 21.7246 -16.4222 2.46451 21.698 -16.4518 2.52836 
21.66 -16.4236 2.43913 21.685 -16.1857 1.86378 21.6431 -16.5169 2.66107 
21.5392 -16.5454 2.69883 21.6137 -16.5485 2.73201 21.5516 -16.6255 2.86846 
21.5204 -16.6617 2.93864 21.5201 -16.6055 2.8428 21.4738 -16.7174 3.08552 
21.4031 -16.7011 3.10357 21.4479 -16.6677 2.9811 21.4603 -16.7423 3.16583 
21.6161 -16.3386 2.2054 21.6013 -16.2745 2.04944 21.4746 -16.3517 2.19364 
21.3888 -16.3205 2.08068 21.5404 -16.2363 1.90389 21.6142 -16.1877 1.80113 
21.6894 -16.1424 1.69936 21.4099 -16.2583 1.89147 21.2364 -16.3054 1.95514 
21.1117 -16.3219 1.95472 20.9902 -16.3277 1.94962 20.9828 -16.3631 2.07763 
21.1236 -16.3625 2.09133 20.986 -16.4024 2.20536 21.1114 -16.4387 2.31808 
21.3334 -16.3713 2.20631 21.3611 -16.419 2.33087 21.4929 -16.405 2.3265 
21.3616 -16.4754 2.45391 21.2368 -16.5387 2.57865 21.3765 -16.523 2.5743 
21.5091 -16.4528 2.44757 21.528 -16.4951 2.56504 21.4437 -16.7885 3.33946 
21.4064 -16.7506 3.26023 21.4498 -16.7677 3.25005 21.3869 -16.766 3.42398 
21.4684 -16.7724 3.5282 21.2978 -16.7569 3.5174 21.3846 -16.572 2.70361 
21.3867 -16.6288 2.85972 21.3511 -16.7589 3.63842 21.4922 -16.7533 3.61516 
21.4108 -16.7591 3.71109 21.5293 -16.7549 3.69397 21.5801 -16.7611 3.76133 
21.4074 -16.7632 3.81261 21.394 -16.7672 3.96304 21.5159 -16.7504 4.03642 
18.1111 -16.0039 1.08004 17.9744 -15.9925 1.31822 17.8613 -15.9586 0.982795 
16.9918 -15.8357 1.20146 16.7362 -15.7962 1.45526 16.8609 -15.8139 1.20509 
22.0683 -15.9267 1.34962 21.9762 -15.9708 1.35711 22.164 -15.8785 1.34378 
21.3833 -16.7225 3.19483 21.3154 -16.7067 3.1653 21.3361 -16.6766 3.02404 
21.2369 -16.6662 2.95367 21.2369 -16.6317 2.82822 20.9864 -16.6707 2.95363 
21.0995 -16.6298 2.8168 21.2366 -16.5876 2.70364 21.1114 -16.5781 2.67725 
20.9814 -16.5894 2.70839 20.9862 -16.5425 2.57953 21.1115 -16.527 2.53977 
20.9861 -16.4464 2.33036 20.864 -16.4423 2.32621 20.7094 -16.3892 2.20271 
20.7363 -16.4345 2.32303 20.5889 -16.3847 2.21523 20.3895 -16.3553 2.20609 
20.4896 -16.4513 2.45158 20.334 -16.3904 2.33011 20.2558 -16.3456 2.2107 
20.1109 -16.3696 2.32965 20.2363 -16.4237 2.45499 20.2383 -16.4653 2.57147 
19.9865 -16.425 2.5809 19.8618 -16.3267 2.31474 19.8509 -16.3954 2.55307 
19.7362 -16.3163 2.33029 19.9866 -16.3152 2.20609 20.1109 -16.3283 2.18836 
19.6232 -16.3352 2.46785 19.4866 -16.3079 2.45666 19.4807 -16.3881 2.70051 
19.3611 -16.3199 2.56691 19.3612 -16.2891 2.456 19.2366 -16.2972 2.58106 
19.2363 -16.268 2.45557 18.9849 -16.2494 2.57942 18.8615 -16.229 2.58062 
18.8615 -16.2601 2.70143 18.7379 -16.2434 2.70262 18.7363 -16.2788 2.83039 
18.8616 -16.2982 2.8311 18.9868 -16.2808 2.70615 18.9868 -16.3163 2.81868 
19.1119 -16.3062 2.70623 19.1169 -16.3475 2.82319 19.2303 -16.3344 2.70355 
19.2411 -16.3769 2.8208 19.1064 -16.3906 2.9516 19.2361 -16.4192 2.95556 
19.3612 -16.3991 2.81576 19.3615 -16.4394 2.94546 19.4868 -16.4269 2.8308 
19.4911 -16.468 2.9492 19.6229 -16.462 2.84131 19.6112 -16.4115 2.70493 
19.8637 -16.4414 2.68634 19.7631 -16.4864 2.82764 19.9888 -16.465 2.69463 
20.1115 -16.5352 2.81667 20.3648 -16.5748 2.81285 20.3612 -16.4859 2.5799 
20.4862 -16.5496 2.713 20.3743 -16.6192 2.94118 20.6084 -16.561 2.71203 
20.6148 -16.599 2.83221 20.7298 -16.5832 2.73717 20.7408 -16.5408 2.60637 
20.8614 -16.5833 2.70501 20.8294 -16.6275 2.84227 20.7365 -16.6498 2.95428 
20.8611 -16.6638 2.95368 20.9623 -16.6359 2.83586 20.8612 -16.6888 3.07957 
20.9863 -16.6957 3.07948 20.8612 -16.7082 3.19993 20.9888 -16.7135 3.18073 
21.2279 -16.6904 3.08173 21.0139 -16.7368 3.3273 21.2125 -16.7296 3.31075 
21.1317 -16.7484 3.45964 20.962 -16.7468 3.43 20.9863 -16.7615 3.57991 
21.1633 -16.763 3.66381 21.2883 -16.7447 3.38784 21.3724 -16.7528 3.33739 
22.358 -15.7573 1.34872 22.2611 -15.823 1.342 16.736 -15.7882 1.20509 
21.3297 -16.7328 3.27592 17.2361 -15.8794 1.33017 17.2364 -15.871 1.2051 
17.3612 -15.8967 1.33027 22.7566 -15.462 1.48525 22.7095 -15.462 1.33832 
22.8176 -15.3975 1.4579 17.7394 -15.953 1.33206 17.736 -15.9439 1.08004 
21.2824 -16.7681 3.78919 21.1113 -16.7756 3.95503 21.2577 -16.7738 3.94914 
21.1113 -16.7785 4.08006 21.2448 -16.7751 4.09045 21.3645 -16.7654 4.122 
21.4526 -16.7431 4.19045 21.3487 -16.7589 4.22628 21.4275 -16.7397 4.27268 
21.5043 -16.7028 4.28927 21.4787 -16.6934 4.34588 21.4188 -16.7227 4.35711 
21.4241 -16.6896 4.39431 21.3747 -16.7244 4.39872 21.3518 -16.747 4.32213 
21.2969 -16.7418 4.39097 21.3033 -16.7209 4.45749 21.3587 -16.6792 4.46909 
21.2982 -16.662 4.50753 21.2349 -16.7059 4.50738 21.2319 -16.7427 4.43033 
21.1658 -16.728 4.51742 21.1826 -16.6753 4.56815 21.2317 -16.6563 4.55549 
21.1786 -16.6207 4.60928 21.1271 -16.667 4.60256 21.1025 -16.603 4.66196 
21.0478 -16.6732 4.63278 21.0471 -16.5994 4.69515 21.092 -16.5254 4.67748 
21.1636 -16.5434 4.63758 21.186 -16.4341 4.6347 21.2569 -16.484 4.58876 
21.3555 -16.3884 4.53241 21.2661 -16.3219 4.60072 21.4167 -16.2464 4.51947 
21.3684 -16.2066 4.57204 21.4891 -16.0991 4.54066 21.5417 -16.2179 4.43037 
21.6157 -16.0945 4.42757 21.6198 -16.2246 4.36042 21.5458 -16.3533 4.39271 
[...]
CELL_DATA 38758
FIELD FieldData 1
Area 1 38758 double
0.010212743045 0.028204895346 0.011160369065 0.0082685941891 0.015783015166 0.02012772828 0.0086007825444 0.0077908528312 0.0051084134972 
0.0062481353115 0.006017004391 0.014225758365 0.017977285358 0.015456312208 0.02714331452 0.028135173852 0.017723693693 0.0080890731061 
0.037573338313 0.039586975411 0.023742593218 0.010173824301 0.014511105234 0.024905281041 0.016190271203 0.018884020672 0.01491801251 
0.0080825385457 0.016092049211 0.016078748103 0.0084708504225 0.020149564577 0.015521683506 0.017462786331 0.02326722446 0.0079542929258 
0.0079284788223 0.0079244931567 0.0079221332984 0.016412125714 0.023973601629 0.015364017812 0.0072173150191 0.0073422604014 0.015854621874 
0.015853963576 0.015847947782 0.015834574686 0.03048214237 0.028254502111 0.016979867189 0.031176797634 0.02846029176 0.013365437965 
0.016766979287 0.016012236127 0.0078749210656 0.0079465228803 0.0079479154689 0.0081620164786 0.0079198756485 0.015845031871 0.0079392264672 
0.0079577202599 0.0079403187492 0.0079215471171 0.0079320282906 0.0079145320698 0.01587034144 0.0079183035938 0.0078953206843 0.015879634937 
0.015833204968 0.013784636107 0.0069067636215 0.015636197675 0.040667091505 0.024734258949 0.0079381120507 0.0079264336402 0.0079264211335 
0.007970813558 0.007944242581 0.0079448292738 0.0079472315535 0.015946290813 0.010306469639 0.0086327062294 0.0086507473811 0.008157965634 
0.0079921982999 0.0092067224029 0.03863812247 0.039046234073 0.014637242532 0.0069982286546 0.0074934904185 0.007664288746 0.018196753882 
0.0084957517389 0.0084654557799 0.0086125200041 0.0082451922733 0.0087398995638 0.0087139616746 0.0081638526757 0.0086759302671 0.0079758365385 
0.007979473968 0.0079679947662 0.0079441157476 0.015921787137 0.01574827953 0.0079639782537 0.0081159461109 0.0080367682107 0.0079445122761 
0.007824174077 0.0080071082288 0.015869896597 0.0079942320558 0.0080147644062 0.0080182726722 0.01599372272 0.016032040223 0.016100650731 
0.016120848849 0.015525705159 0.016015447905 0.0081066610238 0.0081259367971 0.0081343780265 0.0081160142803 0.0081723096112 0.0081676276856 
0.0081379692642 0.0077632829808 0.0080465709352 0.0074256661698 0.0073547417094 0.0079776377692 0.0075838555948 0.0078800737761 0.0079915451017 
0.0077130087062 0.0078665717807 0.0079831970146 0.016037591815 0.015479599656 0.023964626566 0.015690052601 0.015913323317 0.007998154552 
0.015924201087 0.016020723773 0.023853752702 0.031830220278 0.01588402462 0.007928238256 0.0079679605912 0.0079733945027 0.0079576288206 
0.015917415999 0.01805229757 0.0096064947587 0.0079356490163 0.015850002724 0.023676614504 0.01591384138 0.0080099237998 0.0065033057356 
0.0077834989666 0.0091242882181 0.017450992185 0.019680054466 0.018545649724 0.018166646908 0.0095368013038 0.0039829876815 0.0014473200419 
0.0047725064805 0.0052396001592 0.0086198054467 0.0026656183621 0.0026101817173 0.0032417192763 0.0045269046698 0.0095706436777 0.0091257432105 
0.0056315437014 0.0064434668032 0.0033861497715 0.0017607303859 0.0044132175698 0.0030224355033 0.0084674132554 0.011642161748 0.010427266111 
0.011968561871 0.014505723161 0.017518528378 0.012843396358 0.0063825443868 0.0063360896922 0.0061895140641 0.011497300382 0.013282309045 
0.016671614605 0.012489853441 0.018917715921 0.0070471032271 0.006760896993 0.0080944630824 0.0099602192107 0.009392551229 0.015723126518 
0.025999548657 0.016661105283 0.00972392579 0.0095544587657 0.0089512707995 0.0084884890423 0.0091562040619 0.009729428268 0.009738469069 
0.0097146152604 0.0021568510662 0.0084859896874 0.011249743768 0.01299910492 0.01023840012 0.010081116022 0.0065560312885 0.0058276080315 
0.0071437875809 0.01265041093 0.019255306411 0.03691563051 0.016376120126 0.0001505818047 0.0035274646805 0.0057222425858 0.0061187586809 
0.0084670027604 0.010307661927 0.0097709119066 0.016296113735 0.010463811168 0.0090800484858 0.0098297992599 0.010305932133 0.0094810936938 
0.0094745746936 0.0088331901099 0.0091866259468 0.016734284455 0.01495417694 0.014954069013 0.016307272308 0.0080898749464 0.018035965023 
0.0081414018294 0.0079020685945 0.0078670282295 0.027698843151 0.013816405226 0.025543981343 0.013847496736 0.0085999208184 0.014000761523 
0.014787741085 0.0076381449268 0.032894345713 0.033979248274 0.017201372401 0.015611964068 0.0070595553686 0.0070275506065 0.0059074041685 
0.00693027106 0.021476528374 0.0088989549255 0.0097225029671 0.017823686533 0.016064098506 0.0072901798824 0.0081449267831 0.0073150071163 
0.0081527877768 0.0080774916325 0.016483942614 0.016041856602 0.0078893674666 0.007796640436 0.0077770195904 0.0081084186007 0.0082690665762 
0.0085572102615 0.0085589926128 0.0074884151955 0.0075161065601 0.0082155667004 0.0075205357622 0.0078014717887 0.0079065424648 0.0086713818235 
0.0093742284292 0.0086366017658 0.0086506569514 0.0086571528643 0.0082547313637 0.0086867464534 0.010000171028 0.018576130659 0.031680799341 
0.010405322862 0.010190756397 0.024031045242 0.024780118599 0.033219246795 0.01542869775 0.015393860167 0.0087512929787 0.014782517752 
0.015534297577 0.0076020907061 0.0085650534457 0.0089063595877 0.0090291262459 0.011007434428 0.0072868697748 0.007865318002 0.0076819418529 
0.0080529220513 0.0080377947722 0.007636362162 0.0065959806218 0.012420067618 0.015754796206 0.019022624508 0.022941687376 0.014209004426 
0.0095252296429 0.012421213048 0.016797880262 0.016085990629 0.010532050082 0.0063428225046 0.0040951592004 0.00069109259062 0.01594876968 
0.0028093162466 0.0079152122595 0.0071410122171 0.04081074519 0.016129241591 0.0063964694149 0.0070096553755 0.013306334048 0.020621176451 
0.011643004409 0.0091551661582 0.009502859526 0.0097317491032 0.010009634506 0.010851543801 0.0091296126363 0.0052405260708 0.0039051428885 
0.0037287018039 0.002706188049 0.0028857164274 0.0016356200672 0.0013814319528 0.0022810840002 0.0030256974247 0.0027184258937 0.0028528265326 
0.0023484619975 0.002757903827 0.0030165979347 0.0031266474669 0.0025949455857 0.0018708860225 0.0018470961137 0.0019971076463 0.0029788721341 
0.0034794014923 0.0028924126947 0.0024879678547 0.0030497871184 0.0046835359625 0.0051495070396 0.0068793798716 0.0092246449509 0.01001924358 
0.0063373991917 0.0065357136863 0.011604801641 0.01109602025 0.0071085081911 0.0071292146306 0.013979372975 0.012885021803 0.0048096994491 
0.0055631561423 0.0075343321897 0.0059213258447 0.01126871854 0.0081625719391 0.0098561636564 0.010112569779 0.011374355514 0.0095754784161 
0.0079677439459 0.0096289814723 0.0071727284575 0.0082919671351 0.0066466785627 0.0083983524613 0.010204740377 0.011220200829 0.010988323345 
0.010802432089 0.011055576236 0.022767624707 0.019640552763 0.0089196627932 0.016230004602 0.016973460744 0.0057940253115 0.014141658379 
0.037500388905 0.0094056156219 0.010353677612 0.011625537087 0.01027902503 0.010991080918 0.0099696187616 0.019399038123 0.011791040209 
0.0088467058784 0.012217699648 0.010051035546 0.00680229247 0.0077304379939 0.010365024062 0.011534479045 0.0080019041993 0.0059458353273 
0.0098605804719 0.0071281272325 0.0088679882813 0.0043189399354 0.0043747450084 0.0032782373558 0.0038785721937 0.0026204592098 0.0024236345585 
0.0019791168679 0.001556614197 0.0027837099829 0.0031186027042 0.0024637609119 0.0029901191856 0.0048325053513 0.0085576354161 0.0091765860451 
0.010190662322 0.0042683121679 0.0039689748118 0.0045881269734 0.0047978072562 0.0080702921634 0.0061919117851 0.0059311095984 0.0038377706488 
0.0036919189309 0.0027510263396 0.0080271321075 0.007907331165 0.0076785186608 0.0078908639316 0.0078209390642 0.0078981039794 0.01563055061 
0.01562874577 0.015636978718 0.01563698938 0.0078249055763 0.0078307567978 0.007841513569 0.015697593676 0.017307044198 0.016227152328 
0.0086115634231 0.0071685269519 0.008049000581 0.013005540148 0.0098509324447 0.0093217338999 0.0083939461437 0.0071774771095 0.0079732787322 
0.0079740443623 0.0079797173969 0.0080365729285 0.0079349085154 0.0079291670244 0.0084060151587 0.0087409134286 0.0084329356052 0.0059437000968 
0.0075687793792 0.015890327328 0.012751560662 0.014550087082 0.0084156222309 0.016170588556 0.015926623093 0.0079427369981 0.0079497768848 
0.0079317264412 0.015858281228 0.0225428704 0.0076293139535 0.0230544468 0.007845805986 0.0075808082326 0.0075840887241 0.015934239213 
0.015952470227 0.015942754467 0.008541221292 0.0081558319923 0.0074105509366 0.0078010077962 0.015116264933 0.016737349351 0.024009169811 
0.015130442126 0.016630520233 0.016212630026 0.016428735889 0.0082765052926 0.0081719426324 0.016158820555 0.016213664062 0.0083630175493 
0.016747531583 0.033131563557 0.0168693264 0.0075676832991 0.022613503111 0.030240944356 0.025211395323 0.009197132588 0.017527860618 
0.0081390785469 0.0088551238541 0.017946634753 0.0076593537625 0.0088723128247 0.01518071953 0.017460543322 0.016248514287 0.016600390597 
0.0085277269458 0.0080239872973 0.0083355391979 0.0086899913872 0.0081176411257 0.0072041841981 0.014918720375 0.015233051953 0.0074530021342 
0.0081884251173 0.015804072372 0.017442974344 0.0086881442091 0.0076820929155 0.0076803381731 0.016588173268 0.04220216962 0.015947074799 
0.015985805882 0.016143446461 0.0090182554407 0.0090317352494 0.0092459045504 0.0074592011811 0.0072230705069 0.0084747284605 0.0083390250354 
0.009335347184 0.0082401633534 0.0094917168117 0.0083332780353 0.0089392801371 0.0077429552585 0.018063902545 0.017592659326 0.015349813805 
0.017115133366 0.0085156251842 0.0072851473192 0.0073010209025 0.0081792403513 0.0081462100133 0.0085497315478 0.008379381015 0.0083040948323 
0.0083016306061 0.0079874291768 0.0081551588826 0.0083399438168 0.0083087355653 0.0076965440406 0.0077750851335 0.0083416356816 0.0083670665595 
0.0079996161556 0.0078112551585 0.0083282105318 0.016156973069 0.016135649515 0.017539159072 0.033199068806 0.032433781016 0.017129740683 
0.0091942494746 0.017461553877 0.015502836042 0.0075267216192 0.00751112643 0.0081549809271 0.008083780257 0.0080628169838 0.0079813374288 
0.0080737035871 0.0081302854614 0.0080191225985 0.0079488728713 0.0081726584928 0.0080451977684 0.016102975557 0.016036652216 0.0080003473818 
0.0079964684194 0.0088115084683 0.0092117859761 0.0080335341958 0.018072147639 0.0107548777 0.015534290368 0.0083158691571 0.0080806493461 
0.01658909205 0.0096329999836 0.0089639068826 0.0089131099707 0.015962862774 0.008185561372 0.0089409354802 0.0088564726195 0.016233483335 
0.018613104536 0.02929992595 0.0054633728129 0.0082008608825 0.0082080265839 0.0082125571105 0.0082142442812 0.013625910749 0.016856419552 
0.0081715939581 0.008202365206 0.0081596780912 0.008628834923 0.0084248000109 0.0093810391515 0.008485029876 0.0081977799646 0.016328256096 
0.016410425902 0.015783457682 0.0080368181066 0.027679006602 0.017079142523 0.053730091949 0.01557494479 0.016108229671 0.009268326961 
0.0097018634441 0.018121103935 0.036646782916 0.048859542264 0.016875580062 0.033755099138 0.022450589768 0.0097691985521 0.016347056999 
0.015880955333 0.013660822891 0.015851403464 0.015856744242 0.015832417667 0.015867838464 0.0085647640017 0.015640864462 0.015141631389 
0.016810119921 0.015807277564 0.030688404566 0.015744443126 0.031431363457 0.031450728869 0.031467866413 0.015748291633 0.007858823063 
0.0078607916799 0.0078529220086 0.0078530661879 0.015686729909 0.015091332168 0.015810300605 0.01548769902 0.040070939607 0.017515920822 
0.016046061872 0.0079673762027 0.031623116796 0.017353311127 0.0030206876189 0.0084352361141 0.0035451542139 0.0083966756625 0.00016739248277 
0.003682292553 0.023758600869 0.0057283589913 0.0049143999546 0.0045087837238 0.0028481976778 0.0048394585571 0.0040458485632 0.015146343164 
0.053318401843 0.0039829257647 0.003487760169 0.0026656865055 0.0069473799954 0.019861808513 0.0040424776854 0.0091193191754 0.0054166452223 
0.0040935749595 0.0037262982878 0.0030766199975 0.0050832663389 0.0085422457145 0.0035518196546 0.011956478684 0.008457383411 0.0019136165228 
0.0030153032575 0.00084826668574 0.0034453896966 0.0019924607432 0.0035279211698 0.0026574328112 0.0081522733753 0.0070858429331 0.0055198741515 
0.0086428829333 0.0056014480112 0.0065734176935 0.0075762348191 0.0092667482714 0.0072902953281 0.0070809391481 0.010636614336 0.026158640056 
0.018480495543 0.019848819803 0.0097452135495 0.0087559116942 0.0080400359452 0.012067665833 0.013380064394 0.014073347277 0.0081448791983 
0.0087720072924 0.0092077918213 0.0076301360891 0.0099599132601 0.0089214562915 0.010043021234 0.0095170137274 0.0090508228393 0.01186785257 
0.011653544899 0.011994435322 0.0088865414748 0.0089237440463 0.00514206781 0.0043721107332 0.0093655806432 0.012289036602 0.013180860863 
0.012071892872 0.0094484793467 0.011039642937 0.010788845811 0.010198278862 0.010042711348 0.010375718111 0.0090050734482 0.0090484752187 
0.0052072315965 0.0033966892269 0.0028926162078 0.00413234058 0.0040772081954 0.0032286195682 0.0029672829844 0.0032854699853 0.003571640463 
0.0052360537135 0.0060671385698 0.0072056997729 0.010148046372 0.0071879626346 0.0075190954938 0.0069556397927 0.0082066271543 0.0045813493948 
0.0037204893083 0.0089867759128 0.013151203501 0.0047213340887 0.002166922726 0.0026845966464 0.0044077613905 0.0041136034973 0.0042570788114 
0.0052837208234 0.0044765368229 0.0040777848993 0.01197742475 0.01208114595 0.0093187792904 0.0037866314895 0.0065569011238 0.0061238598368 
0.0055026734525 0.0084581359598 0.0096856750972 0.01098808147 0.008032867092 0.012293823997 0.010240203794 0.007768962042 0.0087144727492 
0.008770097537 0.0080135661464 0.0097118348224 0.0088766546217 0.0062981014692 0.0064243753474 0.0056660696177 0.0047419188335 0.0043947028652 
0.004043953888 0.00371913864 0.0027630462457 0.0037509469726 0.0039649843941 0.0043156938629 0.0043825796542 0.0038788020933 0.003798780423 
0.0033771630176 0.0033297692822 0.0037934146423 0.0052098844912 0.0039488702798 0.0034751058022 0.006043362896 0.0071337293894 0.0063526353228 
0.0082178869865 0.012925405907 0.010327421473 0.010834873285 0.0090741891412 0.010291392593 0.012449394074 0.019804275054 0.015057509998 
0.0069898399114 0.0053353471976 0.005801913168 0.0036829725013 0.0044124359627 0.0046519395678 0.0031615677512 0.0028582273071 0.0035123470119 
0.0049205533772 0.0028149128631 0.00376521788 0.0055221593303 0.0064955079204 0.0068324726476 0.0073161188732 0.0087542119251 0.0093736611316 
0.0091543232399 0.0086144193528 0.0088126075748 0.0088462665037 0.018030907469 0.020317882783 0.026280215999 0.01778196145 0.0099381574422 
0.021240541799 0.017626212202 0.0090405929979 0.017545309179 0.016758212452 0.025656946806 0.0082445837294 0.0085064087967 0.0087003948579 
0.017069526089 0.017214325019 0.0088243814981 0.0086135553184 0.008712894635 0.0076752916995 0.0060221435087 0.0060051370624 0.0057200126755 
0.0058602009772 0.0068766886189 0.0048386617316 0.0058908738659 0.005816855881 0.005658924208 0.0058201938397 0.0068183418647 0.0053598590588 
0.0071770703606 0.0086639287732 0.0085669491725 0.0081583720634 0.0080708375328 0.0083987958536 0.017396375971 0.016697990625 0.019236259578 
0.018244781937 0.01682779934 0.0081102334905 0.018236369797 0.010400870041 0.0036953260537 0.0053722146617 0.0067398961548 0.0074842491957 
0.0056793147302 0.0074228415993 0.0087326185838 0.0081224959892 0.006009258939 0.0068493145374 0.0055097910556 0.0043408716698 0.0033166985067 
0.0033199557055 0.0036916855722 0.0036423220572 0.0052309639588 0.0077782603349 0.012470737536 0.0065774561902 0.0066127722192 0.0064573502242 
0.011280811047 0.0093329652796 0.0068579948116 0.0077766247822 0.0073814514705 0.0094863027272 0.0087997151574 0.010275235106 0.0084843789875 
0.0099169526405 0.0082454122546 0.0087138876461 0.010999131658 0.0072988496659 0.014361666941 0.016054956193 0.0082036795845 0.0080034917972 
0.0079989267919 0.009820269239 0.0083804091887 0.018497041243 0.040411575828 0.02990748704 0.056486825996 0.026952785187 0.0081623806724 
0.016993520156 0.015260039626 0.017827172246 0.016273210357 0.0070543599218 0.006689988847 0.0039861692022 0.0026473508103 0.0041640053113 
0.0064689036845 0.0090657995574 0.0091170027282 0.012162051998 0.0058977080591 0.0067472322706 0.0083101968757 0.0068870465292 0.0089165126018 
0.0089103668858 0.0087668323958 0.0064155619906 0.0073026184579 0.0053844616146 0.0067703984736 0.0098180090318 0.0059321750214 0.0088797337594 
0.0085756495328 0.010678883164 0.017610346672 0.014227807827 0.0064609271111 0.010399352737 0.011705172373 0.011698274034 0.0069988580364 
0.008870005014 0.0084733804773 0.010447756791 0.0073893611638 0.0062657907823 0.0074271815234 0.0071304270365 0.0088677772453 0.0043050011654 
0.010692134709 0.01066694575 0.010960628606 0.0071974081287 0.0041576359142 0.0075462949401 0.01016225794 0.0086839407671 0.0081337689422 
0.021889293183 0.018796942869 0.028183405195 0.011067324335 0.0083481510612 0.012190846694 0.021333522227 0.020815904989 0.019175301304 
0.020104414228 0.016721383985 0.0084874688192 0.031113761557 0.020727956976 0.02288845944 0.022580646221 0.0090762141231 0.0080644325004 
0.010025014887 0.019711385936 0.0098256133088 0.0097362901648 0.0095834198801 0.019041617526 0.019044741167 0.009519780636 0.0093580136153 
0.01871001035 0.018661464869 0.0094132387374 0.0094616448198 0.0093250035653 0.019521289142 0.038877715655 0.01937189314 0.010143799525 
0.0092665163307 0.010768778498 0.0098478894107 0.0075748662032 0.0078269727973 0.0082020182515 0.0083039777436 0.0088546119317 0.017527493916 
0.018764127635 0.037856975907 0.044321452512 0.019801508298 0.019879347584 0.031515037679 0.02460699069 0.0084868976511 0.017089606264 
0.015008369214 0.0072050176185 0.036063319607 0.017549194764 0.018477744527 0.017378128192 0.0087372482398 0.01010700103 0.0093764644942 
0.00763011173 0.0077006428131 0.0069763872319 0.0099692069178 0.0092912741922 0.027887283215 0.015744120012 0.016867632584 0.0086003266051 
0.009590139884 0.0097652545954 0.0090629514588 0.010368991946 0.0090680766692 0.009959639446 0.0090223010839 0.013262838351 0.012732244687 
0.0087596949023 0.0057671687346 0.0077023582544 0.01769525753 0.018259487058 0.018242632612 0.010581021456 0.01015806046 0.011790267727 
0.0077849468506 0.0074242515255 0.0085234054875 0.0097244826506 0.0085161974997 0.0097259385348 0.009707482986 0.011607122102 0.011459613713 
0.0081620032407 0.023069697462 0.012309017025 0.020757745096 0.0092598179924 0.0057765444653 0.0044475043316 0.0047055270562 0.0043889811247 
0.0034045315377 0.0038905461349 0.003506537764 0.0028236081598 0.0024862523648 0.0018293621131 0.0021501177156 0.002933721129 0.0032381906509 
0.0038273679665 0.0046986009067 0.0063380994864 0.015525075951 0.0049718275345 0.0078090770098 0.0072683201557 0.0092569327597 0.022987362415 
0.01563336314 0.0078170553415 0.0083057385177 0.0086371579292 0.0084489910495 0.007812885432 0.0078138946344 0.01562625173 0.031255798065 
0.031302892034 0.031299135932 0.015665073734 0.0078388913199 0.0078212198131 0.0078374242367 0.016483211172 0.016210827163 0.014234248258 
0.01651965175 0.0081030258152 0.016064311138 0.0161847178 0.015023973408 0.0076567492691 0.0084030748404 0.023617238652 0.024650944056 
0.024255766245 0.023493592064 0.015672198451 0.01564202573 0.01564518532 0.01563924278 0.015627593266 0.015626590631 0.031257912914 
0.031413022542 0.031432445727 0.031437896361 0.015627792022 0.015634010982 0.0078189090306 0.023448399442 0.0078312843648 0.0078265320315 
0.015651960426 0.031322190734 0.015653048259 0.016449141736 0.0080229541011 0.0068577021904 0.0068569115479 0.007812175259 0.0076397119851 
0.0081157330651 0.016021856535 0.015087181049 0.030990371683 0.016540126863 0.0082361622543 0.0082418838598 0.0078367960252 0.023480587691 