# vtk DataFile Version 4.2
vtk output
ASCII
DATASET POLYDATA
POINTS 18207 float
24.2135 -10.0388 1.37287 24.266 -10.1637 1.37224 24.224 -10.1096 1.24825 
24.1164 -9.88569 1.12231 24.1463 -9.89859 1.36113 24.1713 -10.0107 1.12235 
24.1563 -9.88679 1.49787 24.2237 -9.98359 1.62263 24.1608 -9.85839 1.62301 
24.2125 -9.91339 1.74755 24.1364 -9.77379 1.73558 24.2202 -9.88689 1.87263 
24.159 -9.76029 1.87213 24.2344 -9.85889 1.99785 24.1717 -9.73239 1.99729 
24.1526 -9.64759 2.13476 24.2919 -9.85909 2.24831 24.1749 -9.61949 2.26495 
24.2851 -9.76119 2.37249 24.2768 -9.64549 2.50813 24.3991 -9.91539 2.49777 
24.3023 -9.61829 2.63897 24.4745 -9.89809 2.75919 24.4555 -9.78909 2.87245 
24.5951 -10.0096 2.99628 24.6127 -10.1349 2.87132 24.4617 -10.0372 2.49646 
24.6284 -10.2777 2.73056 24.5044 -10.1525 2.48043 24.4615 -10.1355 2.37236 
24.4066 -10.0101 2.37252 24.3438 -9.88769 2.37309 24.3514 -9.98459 2.24911 
24.2932 -9.98259 1.99732 24.344 -10.0393 2.12336 24.2809 -10.0098 1.87188 
24.4 -10.2823 1.97038 24.4303 -10.2606 2.12297 24.4098 -10.1247 2.23677 
24.467 -10.2611 2.24806 24.4702 -10.3865 2.12344 24.4381 -10.3862 1.99842 
24.4709 -10.5117 1.99874 24.4405 -10.4838 1.87295 24.4062 -10.3585 1.8727 
24.4302 -10.5109 1.7473 24.3959 -10.4986 1.50908 24.3112 -10.2445 1.48078 
24.3182 -10.1527 1.7642 24.2745 -10.1348 1.49694 24.3118 -10.289 1.37258 
24.3628 -10.483 1.2475 24.3154 -10.3863 1.12249 24.3913 -10.5384 1.37248 
24.4179 -10.6527 1.38919 24.4156 -10.7891 1.12243 24.4016 -10.6236 1.25902 
24.4719 -11.1199 1.23098 24.4315 -10.9034 1.1393 24.4487 -10.8872 1.37309 
24.5184 -11.2617 1.49775 24.4887 -11.4839 1.12282 24.4871 -11.2338 1.2477 
24.4385 -10.6363 1.62248 24.4576 -10.7623 1.6231 24.4689 -10.7455 1.73143 
24.4899 -10.7622 1.84571 24.5405 -11.0121 1.8735 24.5206 -11.0115 1.74761 
24.5727 -11.2621 1.87369 24.5203 -11.1366 1.62261 24.4855 -11.0116 1.49766 
24.4442 -10.762 1.49797 24.512 -11.4145 1.37279 24.5646 -11.3866 1.74764 
24.4917 -11.75 1.13452 24.4923 -11.609 1.12277 24.5308 -11.6367 1.49779 
21.2501 -16.3275 1.37282 21.3694 -16.2722 1.09874 21.5121 -16.281 1.38478 
21.0281 -16.3782 1.49911 20.9988 -16.3615 1.3749 21.2337 -16.3171 1.26429 
21.7226 -16.2529 1.49804 21.8771 -16.1602 1.24662 21.8474 -16.2144 1.49823 
24.5042 -11.1365 1.49759 24.5805 -11.3702 1.85667 24.5907 -11.484 1.87371 
24.6128 -11.3747 1.98737 24.6035 -11.2341 1.99946 24.6937 -11.2448 2.23052 
24.6449 -11.1482 2.13438 24.5653 -10.9953 1.982 24.6054 -10.8867 2.15069 
24.7102 -10.9992 2.36014 24.7462 -11.1361 2.39949 24.7689 -11.0383 2.49572 
24.7449 -10.9139 2.49623 24.803 -11.0105 2.62099 24.8147 -11.1362 2.62181 
24.8351 -11.0109 2.74652 24.8677 -11.1365 2.84421 24.8635 -10.9993 2.88391 
24.8902 -11.1365 2.9702 24.8899 -11.012 3.02525 24.8681 -10.8863 2.96932 
24.8882 -10.8741 3.11305 24.9014 -10.9951 3.14219 24.8979 -10.7962 3.23717 
24.908 -10.8591 3.30551 24.9071 -10.9824 3.24548 24.8922 -11.1837 3.18718 
24.901 -11.1382 3.08743 24.8936 -11.2629 3.12712 24.8785 -11.252 3.23411 
24.8691 -11.3383 3.20366 24.8385 -11.3113 3.29993 24.8309 -11.3887 3.27121 
24.7947 -11.3322 3.35793 24.7515 -11.3869 3.38256 24.7948 -11.4479 3.30902 
24.7035 -11.4356 3.40232 24.7351 -11.536 3.34807 24.6382 -11.5211 3.42382 
24.6923 -11.5928 3.37013 24.7809 -11.716 3.26025 24.8113 -11.638 3.234 
24.8233 -11.7149 3.17477 24.7932 -11.8205 3.20183 24.8315 -11.8048 3.13486 
24.7953 -11.9127 3.17488 24.8276 -11.9008 3.11952 24.8068 -11.9992 3.1323 
24.8111 -12.0617 3.07428 24.8403 -11.9972 2.97553 24.8249 -12.1139 2.98943 
24.7875 -12.1497 3.10351 24.794 -12.2005 3.04962 24.7639 -12.213 3.11969 
24.787 -12.2658 3.02344 24.8073 -12.2139 2.9539 24.7865 -12.3202 2.9604 
24.8023 -12.2463 2.84772 24.78 -12.3628 2.84646 24.7564 -12.4554 2.89925 
24.7598 -12.3918 2.7519 24.7844 -12.2635 2.74871 24.7573 -12.2621 2.6227 
24.7966 -12.012 2.62258 24.8188 -12.0119 2.74743 24.8223 -12.1219 2.85893 
24.8375 -12.0147 2.87638 24.8312 -11.8867 2.7475 24.8486 -11.8886 2.87513 
24.8525 -11.8714 2.97383 24.8597 -11.763 2.87367 24.8628 -11.7456 2.9725 
24.8536 -11.7133 3.07836 24.8718 -11.6094 3.00214 24.8539 -11.6262 3.1297 
24.866 -11.5301 3.1001 24.8772 -11.4842 3.00096 24.879 -11.3878 3.08913 
24.8928 -11.2623 3.02729 24.8795 -11.2616 2.89979 24.8721 -11.5116 2.87205 
24.8529 -11.3865 2.74723 24.8522 -11.2495 2.7592 24.8295 -11.3863 2.62173 
24.7898 -11.2611 2.49632 24.7998 -11.386 2.49586 24.7605 -11.4142 2.37096 
24.8029 -11.5114 2.49597 24.8305 -11.5116 2.62209 24.826 -11.6367 2.62237 
24.8508 -11.6368 2.74707 24.8535 -11.5116 2.74726 24.8693 -11.6372 2.87234 
24.8425 -11.7618 2.74721 24.8201 -11.7617 2.62222 24.7983 -11.6364 2.49668 
24.7887 -11.7811 2.48073 24.7616 -11.6645 2.37135 24.7636 -11.5392 2.37086 
24.7157 -11.6088 2.24784 24.6626 -11.4144 2.12337 24.6708 -11.6368 2.12309 
24.6301 -11.5233 2.01008 24.6706 -11.7619 2.1233 24.5949 -11.734 1.87349 
24.5943 -11.609 1.8738 24.5311 -11.5117 1.49777 24.5691 -11.6369 1.74816 
24.5651 -11.7619 1.74835 22.0133 -16.1035 1.25896 22.0285 -16.1282 1.41482 
22.3706 -15.9713 1.45829 22.235 -16.0287 1.40603 22.3022 -15.9435 1.22032 
20.8956 -16.3846 1.50122 20.7652 -16.3956 1.60601 20.8751 -16.3466 1.2477 
20.6529 -16.3911 1.6229 20.3751 -16.3517 1.49765 20.3752 -16.3312 1.37292 
20.5 -16.3251 1.24768 21.2667 -16.3433 1.48146 21.4834 -16.3124 1.51459 
21.5976 -16.2848 1.49791 21.5276 -16.3286 1.62353 21.653 -16.3011 1.62311 
21.7784 -16.2684 1.62279 21.8921 -16.2266 1.60616 22.0896 -16.1486 1.59918 
22.0277 -16.2178 1.74842 22.1529 -16.1673 1.7483 22.2946 -16.034 1.52579 
22.4835 -15.9497 1.61101 22.3644 -16.0368 1.64927 22.5059 -15.9815 1.74797 
22.3933 -16.0576 1.76473 22.2781 -16.111 1.74833 22.3772 -16.1075 1.87307 
22.5014 -16.0308 1.87328 22.5024 -16.1894 2.24652 22.3777 -16.2637 2.24626 
22.5028 -16.2324 2.37217 22.3771 -16.3064 2.37223 22.2506 -16.3258 2.24727 
22.252 -16.2768 2.12162 22.1263 -16.2781 1.99734 22.1255 -16.2254 1.87351 
21.9888 -16.2826 1.885 22.017 -16.3255 2.01482 22.127 -16.3843 2.24629 
22.0012 -16.4338 2.24672 21.9029 -16.3566 1.99833 21.8758 -16.4756 2.24695 
22.0016 -16.4838 2.37152 22.1266 -16.4307 2.3717 22.098 -16.4833 2.49727 
22.223 -16.423 2.4973 22.0288 -16.5513 2.62225 22.2509 -16.4842 2.74764 
22.3768 -16.4211 2.74743 22.367 -16.458 2.85663 22.4734 -16.4018 2.86581 
22.4843 -16.414 2.99845 22.3093 -16.5153 2.98969 22.23 -16.5586 3.00299 
22.195 -16.5476 2.87389 22.1678 -16.5892 2.99587 22.0649 -16.6386 3.00554 
22.0219 -16.6194 2.86544 21.9418 -16.6804 2.97589 21.8869 -16.6768 2.88474 
21.7938 -16.7369 2.9761 21.7515 -16.7243 2.87163 21.8476 -16.6559 2.74792 
21.9732 -16.6088 2.74733 21.9039 -16.6034 2.62189 22.1135 -16.5508 2.75927 
21.9739 -16.5384 2.49675 21.8484 -16.584 2.49667 21.8765 -16.5284 2.3713 
21.7343 -16.6111 2.47984 21.7509 -16.5102 2.24628 21.6256 -16.5495 2.27461 
21.6198 -16.6514 2.51631 21.5007 -16.6499 2.46821 21.5004 -16.693 2.59417 
21.371 -16.6754 2.505 21.381 -16.7243 2.65858 21.5003 -16.7332 2.71962 
21.3685 -16.7651 2.77917 21.4875 -16.7846 2.87299 21.3589 -16.7985 2.88803 
21.2505 -16.799 2.8711 21.2497 -16.7617 2.74606 21.1252 -16.7961 2.86969 
21.1254 -16.7635 2.74611 21.001 -16.7894 2.87097 20.9994 -16.7583 2.74611 
20.8714 -16.7805 2.86984 20.875 -16.8083 2.99724 21.0001 -16.8168 2.99718 
20.8751 -16.8303 3.12274 21 -16.8382 3.1227 21.1251 -16.8239 2.99701 
21.1251 -16.8446 3.12263 21.2503 -16.827 2.99679 21.2501 -16.8482 3.12227 
21.3755 -16.8212 2.99696 21.3753 -16.8419 3.12238 21.501 -16.8103 2.99658 
21.5006 -16.8289 3.12244 21.6389 -16.7888 3.00831 21.6099 -16.8119 3.14077 
21.7508 -16.7753 3.10609 21.6771 -16.8015 3.22236 21.5784 -16.8258 3.23828 
21.5008 -16.8428 3.25249 21.4992 -16.8474 3.35297 21.3833 -16.8718 3.37538 
21.3759 -16.8596 3.24888 21.2706 -16.8836 3.36535 21.2514 -16.8677 3.24602 
21.1548 -16.8884 3.3751 21.2107 -16.8941 3.48188 21.0139 -16.9053 3.54637 
21.1175 -16.9039 3.60969 21.2297 -16.887 3.60302 21.1699 -16.8904 3.68843 
21.2444 -16.8526 3.6763 21.3082 -16.8698 3.57588 21.3072 -16.8406 3.64202 
21.3769 -16.8695 3.49221 21.4306 -16.8286 3.54435 21.3789 -16.8113 3.62492 
21.3206 -16.8051 3.68702 21.3063 -16.7639 3.73639 21.2588 -16.8185 3.73042 
21.2365 -16.7668 3.80527 21.2761 -16.7005 3.7793 21.4109 -16.698 3.66341 
21.2848 -16.6029 3.784 21.4043 -16.6467 3.68394 21.3734 -16.5333 3.71018 
21.3043 -16.4851 3.76519 21.3934 -16.3905 3.69567 21.2828 -16.3877 3.78365 
21.2408 -16.5417 3.82144 21.1913 -16.4501 3.86513 21.1278 -16.6276 3.93462 
21.2195 -16.6865 3.84136 21.0926 -16.7052 3.96693 21.1826 -16.7736 3.85944 
21.0558 -16.765 3.9982 21.0514 -16.8189 3.95202 20.9994 -16.8354 4.00005 
21.0714 -16.8823 3.8571 21.1328 -16.8369 3.85923 21.1222 -16.8694 3.81374 
21.1819 -16.8168 3.80991 21.1905 -16.8583 3.73939 21.124 -16.8944 3.73675 
21.0796 -16.9047 3.70366 21.0428 -16.9031 3.79221 20.9786 -16.9148 3.74866 
20.9693 -16.9092 3.84227 20.8756 -16.9169 3.8518 20.878 -16.916 3.7514 
20.7526 -16.921 3.87751 20.7502 -16.9131 3.74803 20.8752 -16.9061 3.60537 
20.9881 -16.9128 3.64107 20.8992 -16.8954 3.49106 20.7555 -16.8979 3.6114 
20.7434 -16.8812 3.49445 20.625 -16.8878 3.62255 20.625 -16.905 3.74536 
20.5009 -16.894 3.7462 20.4994 -16.8743 3.62241 20.38 -16.8824 3.7411 
20.3707 -16.8996 3.86949 20.5001 -16.9075 3.87251 20.3751 -16.9093 3.99761 
20.5011 -16.9142 3.99993 20.6255 -16.9165 3.87361 20.6439 -16.9182 3.96325 
20.7109 -16.9158 3.99096 20.8266 -16.911 3.95355 20.7681 -16.9013 4.04794 
20.6715 -16.9073 4.09225 20.7034 -16.8845 4.15639 20.6457 -16.8899 4.17814 
20.5989 -16.9097 4.12483 20.5515 -16.9039 4.19038 20.6333 -16.8526 4.25013 
20.5676 -16.875 4.2621 20.6245 -16.8102 4.29095 20.6822 -16.7877 4.27079 
20.6964 -16.713 4.2857 20.6213 -16.7514 4.33419 20.6317 -16.625 4.33548 
20.5539 -16.6287 4.38833 20.5028 -16.515 4.40862 20.3771 -16.512 4.48544 
20.4066 -16.427 4.4587 20.4982 -16.4051 4.40781 20.4329 -16.2909 4.4592 
20.3154 -16.3216 4.51561 20.2642 -16.4251 4.54146 20.1491 -16.3258 4.60381 
[...]
CELL_DATA 36410
FIELD FieldData 1
Area 1 36410 double
0.0085057193582 0.016372210848 0.010723503514 0.017530316117 0.0088407374716 0.0088673807515 0.009584757098 0.010179441845 0.0097765867209 
0.0089819809862 0.0089986452878 0.0098355387858 0.030639835352 0.017762649215 0.016547872142 0.018623857533 0.02042115824 0.019975244491 
0.043390707031 0.025798279139 0.021974844358 0.024736962257 0.044062786101 0.037631744781 0.017263693068 0.0072120313054 0.0089092997424 
0.0088802349059 0.0089507850352 0.0088845885228 0.0089746176295 0.017840334077 0.0076921563873 0.005888301795 0.0087344256046 0.035555862609 
0.018621375165 0.013960448203 0.0095019225452 0.010372937094 0.0085721044493 0.0084957782492 0.0083524431031 0.0082808088454 0.0083026885737 
0.0082396111914 0.019729940847 0.05105375471 0.036533012231 0.015167855081 0.015845208597 0.023537007702 0.021025262271 0.0070845550461 
0.0085380804699 0.007290858973 0.019304832665 0.016416529953 0.012969162213 0.026436639332 0.033309173204 0.0083688061753 0.01750127721 
0.014940131963 0.0069622158582 0.0054366245198 0.014454357759 0.017224098356 0.016058275038 0.023997791466 0.015928195614 0.031921035957 
0.015966118746 0.015906886948 0.013835291897 0.027260811984 0.02641916454 0.037496021131 0.016520224831 0.016674924866 0.015860383779 
0.01584840716 0.01490924305 0.0064338347075 0.0076279254146 0.0073518731925 0.0090041026361 0.017554515643 0.011480480988 0.018234273648 
0.022719125177 0.030947973798 0.019921801255 0.0092243451944 0.0091712729115 0.0083008560926 0.008245693541 0.0081745948519 0.014379828433 
0.0094424182852 0.0088083579922 0.0093240936319 0.0086996992104 0.0095311122053 0.0073902375211 0.0087404406183 0.0098425918385 0.0059979172699 
0.010055443037 0.0084098817563 0.0053335848434 0.0039718947532 0.0045650167882 0.0041167139134 0.0036668941145 0.0031316979317 0.0040414909873 
0.0041261359806 0.003722672823 0.0062602028949 0.0059183578631 0.0038855678021 0.006964634032 0.0073812547517 0.0037747704576 0.0050677740545 
0.0038047588859 0.0037759488585 0.0031643656197 0.0030485873281 0.0034149582638 0.0096902784744 0.0054775595048 0.0047277672218 0.0040570813538 
0.0023384578925 0.0027017847501 0.0030315822555 0.0036281420162 0.0058577869187 0.0067310638194 0.0065800182975 0.0054338596255 0.006298487654 
0.0084219791529 0.016312887238 0.016097932132 0.014279448339 0.0070591754324 0.0069928434266 0.0064776582076 0.008198952219 0.0081535897164 
0.0062866227558 0.0062538156263 0.0062370580822 0.0062498176873 0.006743083266 0.013270696546 0.0068021477766 0.0060556442929 0.0045103993503 
0.0059509134949 0.0062115124962 0.0068452204708 0.0085570670863 0.0062866579555 0.014256174908 0.0080461483924 0.0073581456708 0.015748058775 
0.017573530066 0.0098828780056 0.0087479938551 0.017640720659 0.016225572257 0.008101160139 0.0064466573889 0.01794538252 0.0082266870093 
0.0080970607552 0.0080806718186 0.0079578430439 0.0079686336197 0.0079288614359 0.007925363569 0.0081583515527 0.0079885826147 0.0079944315139 
0.007973411995 0.0079634051062 0.0079448633803 0.0080528251361 0.010323707585 0.0092008048301 0.0081814304997 0.0081921345899 0.0082628730702 
0.008289837049 0.025896804726 0.022609413738 0.014787967942 0.013229780294 0.0102390722 0.0075058539879 0.029475605858 0.0088003721604 
0.0088540492568 0.023808327505 0.011577463152 0.015864414332 0.015807383999 0.016067977741 0.016663782894 0.017802374452 0.019461577326 
0.0079347632891 0.014552490447 0.013401086878 0.01458124931 0.015052663423 0.0074662589704 0.0069022180829 0.0082426677593 0.0082928223949 
0.0083065591372 0.0083950746395 0.0070457992026 0.01271923404 0.020231682573 0.016174765532 0.01044442152 0.020063419535 0.016409648341 
0.0077540717762 0.011411994938 0.010683373615 0.010517894527 0.0082685585947 0.0074560222918 0.0075832017667 0.0082913500518 0.028982939834 
0.028804692408 0.0095150108864 0.0095632815448 0.0092982090041 0.0093906069767 0.0091077001545 0.0090559833797 0.012772192966 0.042776680662 
0.0097649974185 0.0083835681144 0.015617960676 0.016929001075 0.015293063579 0.017811015743 0.0088229832949 0.0090368566178 0.0088987251402 
0.0090470089782 0.008940839161 0.029805249202 0.018257178855 0.0079480039733 0.0069002421359 0.0080201089248 0.01395643985 0.0055868310733 
0.012989921979 0.0044688513776 0.0069147079802 0.013381318574 0.0088558884178 0.0073909620336 0.0074497064513 0.0074962903976 0.0099029195707 
0.0094545866497 0.0086597484389 0.0087427615516 0.010224347261 0.0089845585184 0.0087742967193 0.0087198737345 0.0088411481273 0.0087793325496 
0.0081889692039 0.01749780897 0.015913012531 0.015174596702 0.015912331397 0.0079898841262 0.0086638658479 0.010013092405 0.007890333079 
0.0080028481303 0.010272942348 0.0072519544579 0.0062571296145 0.0077492827215 0.0081765128319 0.0079433708667 0.0079481694077 0.008112354069 
0.0083527902981 0.0084618690577 0.0080974595451 0.0079880531583 0.0079666446309 0.0079702780357 0.0079730772256 0.0079716056822 0.0079577324448 
0.0079754175686 0.0079672835623 0.0080052489997 0.008012567945 0.0088949811945 0.0076902162964 0.0091244306957 0.0071305197157 0.0046957586337 
0.0036430947592 0.0039756015607 0.0059273106694 0.0080035815648 0.0082436535057 0.0071748382445 0.0074950787169 0.0070726240251 0.0064756857519 
0.012347564269 0.0095896088245 0.006942797429 0.0046572095835 0.0033902356107 0.0034870152657 0.0024296824544 0.0027405854091 0.0066548584533 
0.00310144389 0.0022502652795 0.001896691675 0.0022027681915 0.0032162139706 0.003215676572 0.0058125076412 0.0087093363931 0.0037136984305 
0.0079528332521 0.0058545559834 0.0068982828026 0.0068394304963 0.0049311465051 0.0076697271979 0.010162237136 0.010331963072 0.0050763594989 
0.0064843183153 0.0074974145325 0.0058514411038 0.0059018980108 0.0025261143628 0.0035413661045 0.0043275905231 0.0018679416721 0.0019901977455 
0.002253668339 0.0022324268779 0.003200123698 0.0030248135565 0.0020077456812 0.0018649246402 0.0026200377512 0.0036849028712 0.0032436727901 
0.0043684243096 0.0050474398202 0.0061471574045 0.0082869282603 0.0093501541813 0.0082181197684 0.0058319244617 0.0072612995723 0.0068269489632 
0.009251679872 0.0077974286525 0.0081239803393 0.007725417053 0.0079135145803 0.007601101474 0.0078922119226 0.0082342409384 0.0083198443333 
0.0080426735754 0.008019567537 0.0067415937607 0.0056645388828 0.0043846138519 0.0058088329285 0.0044407821765 0.004083755543 0.0039978907431 
0.0023099220268 0.0028048669522 0.0029049107514 0.0038639934209 0.0027501548973 0.0020950926386 0.0019282043704 0.002268585298 0.0035517245107 
0.0055070405239 0.005940511776 0.0054740661097 0.0083225000247 0.0063439555332 0.005801036992 0.0069173246683 0.0085460499381 0.0085802535581 
0.0096192180345 0.0077917285458 0.0085631380489 0.0069186123639 0.0051537348714 0.0056197069098 0.0045121678742 0.0044686918623 0.0032063586021 
0.0042268439905 0.0034415606147 0.0018822626275 0.0025725387823 0.0034233681873 0.0027728251776 0.0024172285615 0.0027505626138 0.0031619120667 
0.0028360093618 0.0033182048832 0.0075062260089 0.011444314253 0.0070026879361 0.004012740224 0.0048841540595 0.0047545821888 0.0036025108537 
0.0018662821308 0.0023352347057 0.0027339347015 0.0019073323677 0.0016399469294 0.0020192752584 0.0023953168167 0.003185159536 0.0053571133985 
0.0045290354464 0.0057604265238 0.0032313158997 0.011097706028 0.004404685967 0.0054408710509 0.0066927362275 0.008551040217 0.0076725542208 
0.0079129060302 0.0020547049455 0.0026435597714 0.0028614451139 0.0028173614884 0.0023367613471 0.0020593495938 0.0025101567334 0.002816757187 
0.0028328195848 0.0052724741567 0.0024831884467 0.0020904922032 0.0029008057029 0.0075672330789 0.003942902734 0.008542830101 0.0094698733589 
0.018159743396 0.015478825655 0.0069389685358 0.0069037870325 0.0078498941575 0.0080042935553 0.0079919232742 0.015025488705 0.013920771945 
0.031801639662 0.016036579135 0.007918716974 0.023791822367 0.0072198878366 0.0072215382129 0.0077905312055 0.0089526220335 0.015844382554 
0.015845203779 0.0079051191818 0.0079206639185 0.0078157876562 0.0078070211659 0.0073235569784 0.0076751537357 0.0069186103925 0.0068989470659 
0.0088728177124 0.0077608938229 0.007757888697 0.008774557088 0.0097968061764 0.007950196946 0.0079331515522 0.0079559404569 0.0079610010941 
0.0079604381403 0.0079536645925 0.0086094563355 0.0086158760264 0.016556649314 0.013845488516 0.0071947726857 0.0080584417174 0.0089798794273 
0.0080734193269 0.0078222751096 0.0078469409006 0.0081355088023 0.0078424001725 0.0077653628387 0.0079050441071 0.009351308015 0.010385119388 
0.0086158640026 0.016861062983 0.018730552826 0.014121286214 0.017424668447 0.015745516011 0.018478583045 0.015669689634 0.0085766462927 
0.0095038821824 0.0095338695008 0.0086191093996 0.0087145536899 0.0096480136771 0.020169204406 0.020210877741 0.0086653732926 0.0095996804556 
0.019033543014 0.022042231175 0.016734151641 0.017695050202 0.0083055442652 0.0082697878085 0.0095690078475 0.010325369269 0.010245214885 
0.010059509719 0.01285520311 0.014457816689 0.0081068986507 0.0082153943867 0.0082233822813 0.0069300867682 0.0071836540116 0.0070142279077 
0.011047830406 0.0091894510968 0.0074275333385 0.0083465201184 0.013672817213 0.036360845845 0.019932541231 0.0093382426613 0.0080043590985 
0.0086754555437 0.0076770900322 0.0091115255552 0.0063104183005 0.0080549024627 0.010892160228 0.016719539105 0.0075340342982 0.023190758995 
0.025049581112 0.0075568258003 0.0065154996319 0.014371839042 0.0075171976264 0.007799167324 0.010706953373 0.0097008740969 0.0080136838325 
0.015616135346 0.015221050351 0.007959586235 0.0059608791814 0.014045988347 0.020368511668 0.013295261968 0.0070900496926 0.0080929793351 
0.0080975012047 0.032465252782 0.016384224601 0.032811237921 0.01554278874 0.016688781375 0.02518464998 0.041390077927 0.026101031627 
0.023144039426 0.022489589121 0.024856290937 0.024704223591 0.024141562406 0.024532132884 0.023169133404 0.015717809119 0.015493151753 
0.0077667032162 0.0077359200043 0.0072882817504 0.014565461199 0.015802059765 0.016856420624 0.0079069060956 0.0079517612914 0.0079533472719 
0.014818315405 0.0079974688179 0.015437255309 0.015581738751 0.0157677249 0.0078970793323 0.015692306824 0.015870451711 0.029933802748 
0.015936499826 0.013346171011 0.015942333301 0.015881657175 0.017739432407 0.012669795405 0.015886947685 0.031873843629 0.015853284407 
0.02284394374 0.0079418594031 0.0079056957216 0.0079017616381 0.007918668405 0.0076272063347 0.0076891485053 0.0079141452141 0.0084760698542 
0.010234809316 0.0089357829509 0.0071853142324 0.0070045013717 0.0060110322668 0.0061841258067 0.0084393293305 0.0090833812883 0.0079188300457 
0.027209558169 0.015886068723 0.031852879329 0.019271058409 0.01600111648 0.015895129774 0.033710283318 0.015929265417 0.014813662297 
0.0079101698143 0.0074032254827 0.0087386708861 0.009510414327 0.0080269649175 0.0080278679866 0.0080707438312 0.023915603342 0.015949206358 
0.0079500044116 0.0075579237987 0.015409548439 0.016695132902 0.0080838545084 0.015877531167 0.016362592798 0.0082833782986 0.0079626536833 
0.024296837199 0.032567646114 0.024448109062 0.0078838450213 0.015341125018 0.016087548635 0.0081092715464 0.0075741998357 0.0083299458328 
0.01708044937 0.032609098558 0.01618164859 0.0086291360202 0.0083509597688 0.016560746439 0.016916656445 0.017198221469 0.016685755115 
0.016779166604 0.016770166916 0.032158158741 0.024859919303 0.051221091965 0.014056503792 0.0073753453086 0.008191342088 0.0079854765422 
0.016114826209 0.024899540145 0.025119865487 0.024720265127 0.025409916259 0.0079139451227 0.0079637046843 0.01526514906 0.0079175629764 
0.0080532878682 0.0079900052419 0.008054913137 0.0080362990926 0.0081270055158 0.0080567670165 0.0080605052468 0.0080031803103 0.007886336624 
0.0069967344444 0.0062899580491 0.0080758747983 0.0088556146557 0.0078674250394 0.0078840718266 0.0079015216531 0.015837278534 0.0158641353 
0.020090641918 0.011074812071 0.017492406656 0.0076470657067 0.017242930046 0.011399935719 0.010632022247 0.015267505375 0.0079619264825 
0.013408105537 0.010285821147 0.01294369976 0.01064275405 0.022128678382 0.012025176079 0.0072165251994 0.015865667248 0.017157324367 
0.014541696574 0.01849052348 0.0083817192411 0.0060787250621 0.0079172908212 0.010685689293 0.00888558209 0.016445275627 0.045626656215 
0.014442979571 0.016900786318 0.011603123817 0.021667306442 0.028871755886 0.018612268219 0.010706849848 0.010720401267 0.0097270215119 
0.019569086798 0.012815801087 0.0074752526474 0.0088198208654 0.007344407118 0.01199260571 0.0088751351155 0.0096596732128 0.008732522988 
0.0062829660254 0.0059403483023 0.0054216825282 0.0056630270711 0.0058951085608 0.0078876078169 0.0097695856843 0.010245860572 0.010042212013 
0.0096401777317 0.009695047927 0.01044492087 0.010765416154 0.010674510933 0.010968371558 0.010679549871 0.021704498274 0.021512813321 
0.022226995994 0.011035699497 0.011486451596 0.010295364358 0.010770996141 0.01056818216 0.010360540613 0.027023063828 0.013619072869 
0.009389947561 0.0090733246059 0.013478131728 0.011670099907 0.010953471025 0.020474536792 0.021755431137 0.025735990197 0.010995607211 
0.0083249563499 0.0058506478711 0.0052148493866 0.0060302656548 0.0061059654591 0.0045927026214 0.0077311354062 0.010215752535 0.0083210758733 
0.0051850062659 0.0049519073386 0.0057807655746 0.0072225681479 0.0080530779938 0.010333836115 0.010260003783 0.010732344626 0.011434483295 
0.020985472601 0.020790297084 0.010089994187 0.0099469857307 0.0098786963146 0.0097553022789 0.0097571882995 0.0095721025315 0.009718306874 
0.0094491083808 0.0094121380122 0.0096277904766 0.018601235377 0.0090191213253 0.0091819991515 0.0094230757166 0.0092782919493 0.0090195224214 
0.013625468252 0.01406913968 0.0078297123468 0.0048946365449 0.0076704671485 0.0047845742679 0.0030632594427 0.0034592786901 0.0041620397197 
0.0050881046341 0.0071371483741 0.0076410081706 0.008394783254 0.0088321917446 0.010175990684 0.0089533768845 0.0088968720358 0.0088537825424 
0.010547621019 0.026367736481 0.017543160499 0.022264463067 0.028067729091 0.028380875104 0.0099102947909 0.0094072977803 0.0098794829513 
0.01017278078 0.0098915857219 0.0099213503505 0.010069216574 0.010282829519 0.0097313415507 0.0099270796336 0.011027052528 0.032319887495 
0.010924580058 0.01039580757 0.010485293446 0.009831544765 0.0098620534749 0.0095925797971 0.0095604005066 0.011240383349 0.010305049821 
0.0099573063291 0.010367493414 0.010365283515 0.010468260846 0.010364927534 0.021142674378 0.021453572998 0.020438546343 0.010317290958 
0.01953865117 0.009779521909 0.0096327339969 0.020443067455 0.0087598383577 0.0096212121202 0.010376406481 0.0082042329782 0.019912883353 
0.019269984065 0.0095334852145 0.020484112741 0.010019826863 0.0097622034701 0.009712959005 0.017277657051 0.010207065981 0.0096541350649 
0.020368390374 0.018809065013 0.014181191332 0.010504384191 0.016362590965 0.019001792545 0.0098824166259 0.0097820906545 0.005987960591 
0.0070964406659 0.0072292360721 0.0058819398414 0.0041455646828 0.0031409226163 0.0035955137882 0.0025230959327 0.0037209024843 0.0030401095778 
0.0097666543406 0.0089208106143 0.0028196214261 0.0031923224979 0.0033444830915 0.0037448342113 0.0026478659843 0.0025387580858 0.0030948965338 
0.0068985924472 0.0071881679117 0.0065115781443 0.0029009041902 0.0028506190939 0.0052384422243 0.0055944097411 0.0077795173205 0.0067095591265 
0.0059282054256 0.0049742789411 0.0027319323835 0.0029641755478 0.0036709968644 0.002537929782 0.0020244026459 0.0028535884614 0.003136243977 
0.0043308734297 0.0035666136352 0.0033967585943 0.0040382039677 0.0040835470707 0.0043699957674 0.0046789349563 0.0031234994788 0.002872587216 
0.0027380715952 0.0033622745523 0.0026554988394 0.0032287219686 0.0064561757574 0.010814046537 0.0055697343708 0.0032638220658 0.003983936848 
0.0033672173445 0.0042987830475 0.0057803506136 0.0041195342698 0.0035374762641 0.0033163451703 0.003385535291 0.0033202064064 0.0030816190441 
0.0057909107502 0.0052477647357 0.0059781029257 0.0066236393963 0.0067705748502 0.0087005345076 0.0087416062514 0.0084982944949 0.010032838129 
0.010939009386 0.010928168954 0.0096360315148 0.007947109904 0.0079338230399 0.0097591820979 0.017350798745 0.014422070001 0.019101772561 
0.01918949076 0.0085673183371 0.029502076712 0.017192129245 0.015008116593 0.0086763464754 0.017316346352 0.032667027261 0.01611275401 
0.017296526749 0.0084954655379 0.017069710198 0.0084916192636 0.0083597641503 0.0091776826583 0.0095782775363 0.0089877384421 0.01205624537 
0.015270933323 0.015458062006 0.0083535874382 0.0083865871792 0.008508762838 0.017031077285 0.019334084568 0.0092955480305 0.0099406795802 
0.0084936987503 0.01676809293 0.014039190201 0.014604547498 0.0067970968966 0.0098183420906 0.0090405752113 0.013490597161 0.015547360817 
0.014869247016 0.013868617514 0.0067608573759 0.0087426189396 0.0082139697776 0.0072391499804 0.0068163594417 0.0052179782988 0.0046348116226 
0.0037452982845 0.0037815027159 0.0039500826993 0.0039428925626 0.0035102046739 0.0030795641456 0.0042464175517 0.0029878003092 0.0056201276857 
0.0050739039442 0.0033484795646 0.0034802649749 0.0035614224252 0.0050543296963 0.011008301733 0.012221726429 0.0068740362291 0.0079533216991 
0.017536421752 0.021873637943 0.011654675668 0.012297937501 0.019373524925 0.012292198504 0.010253466293 0.011239818371 0.0090153696057 
0.0047744206536 0.0033878348118 0.0050413841268 0.0075754319428 0.0061662719837 0.0055967241166 0.0061926275991 0.0069905502965 0.0068717642593 
0.0088456693953 0.0087463751872 0.0096791829001 0.0093110320218 0.010412055311 0.0081081047276 0.0091978113932 0.00677088317 0.0095537842269 
0.009059017622 0.019069575016 0.010224048333 0.009854142851 0.00807530013 0.0079739563625 0.0079295112988 0.008042944201 0.0079974333867 
0.0076304178303 0.0057920123546 0.0061566023021 0.0049824749465 0.0077019740063 0.0078944116155 0.0084011932548 0.0087607414564 0.0081311577886 
0.0076967981203 0.0061521047429 0.00508376099 0.0061563068386 0.007324267878 0.0061579610781 0.0050426024821 0.0054000317034 0.0053153003458 
0.0055430902142 0.0068019540278 0.008487154792 0.010081176245 0.0092397762516 0.0088606454519 0.0071399601057 0.0065204601065 0.0066945741221 
0.0069544835618 0.0069567785943 0.0080051607827 0.0078908249424 0.0078745991835 0.0082114365673 0.0080617536811 0.0078998534569 0.0079956082017 
0.007984522453 0.0079611048025 0.0081245581597 0.0080890890782 0.0080678730619 0.0078925820654 0.0079096020079 0.0080075173965 0.0079867723182 
0.0083146575708 0.0081879763671 0.0082082162964 0.0086445568629 0.0086361977345 0.0088456343857 0.0088707287382 0.0090601379892 0.009088353061 
0.0089243884759 0.009087610196 0.008657767869 0.0087687530513 0.0091832125464 0.0099945671036 0.0093936835611 0.0092842529432 0.0076770119338 
0.0067064696747 0.0079953228169 0.016860505639 0.015670547961 0.016658625146 0.023999928876 0.0080799440238 0.0079388071585 0.0079358215939 
0.0079279118482 0.0079834462294 0.0080621941535 0.0085170473578 0.0068330664293 0.0062531953309 0.0069381156829 0.0037219126897 0.0037935480276 
0.0032088435311 0.0026810639552 0.0025263397296 0.0074354130303 0.0038827217805 0.004531949996 0.0040688122351 0.0018101344164 0.0019089390922 
0.002491652296 0.0025387348031 0.0022711487538 0.0025684917074 0.0025656464483 0.0025017985843 0.0031451771763 0.0030370266095 0.0032377854074 
0.0024009770745 0.0031359384206 0.0032465761144 0.008724431892 0.004379153025 0.0024806589996 0.0038220156433 0.0095092939899 0.016403126438 
0.0060671617518 0.00655901969 0.008158213621 0.016990258127 0.014582205498 0.0087800772995 0.0092863186238 0.0086397408235 0.0082205175141 
0.0081436344245 0.0066227428469 0.009041810127 0.015388693778 0.012459475979 0.0075060656985 0.0046309000793 0.0029508643529 0.0051133056877 
0.011788845924 0.0064798884758 0.0042399248884 0.0032392005373 0.0052325942359 0.0041647157255 0.0046110034749 0.0060737118496 0.0070679495955 