# vtk DataFile Version 4.2
vtk output
ASCII
DATASET POLYDATA
POINTS 20278 float
14.1716 -14.7634 1.38471 14.2965 -14.8398 1.13541 14.296 -14.8554 1.60723 
14.4233 -14.917 1.16394 14.5465 -14.9875 1.23222 14.5467 -15.002 1.60722 
14.5474 -15.0174 1.98217 14.6724 -15.063 1.5378 14.422 -14.9436 1.91276 
14.4221 -14.9336 1.66273 14.4216 -14.952 2.0377 14.5337 -15.019 2.10721 
14.3796 -14.9392 2.16332 14.4868 -15.0084 2.23063 14.3111 -14.9168 2.28767 
14.2823 -14.8719 2.10716 14.1479 -14.7892 2.17794 14.0899 -14.7862 2.33777 
14.0471 -14.7079 2.13555 13.9518 -14.696 2.37454 13.947 -14.6484 2.22406 
13.8528 -14.5855 2.29522 13.9434 -14.6223 2.12249 13.7785 -14.498 2.23001 
13.7696 -14.5267 2.32403 13.7027 -14.4626 2.29145 13.6621 -14.4706 2.35469 
13.6241 -14.4402 2.30086 13.6638 -14.4136 2.23533 13.6209 -14.4005 2.22471 
13.6579 -14.3794 2.14404 13.7188 -14.4239 2.1467 13.6749 -14.3584 2.05454 
13.7155 -14.3894 2.03029 13.6246 -14.2853 1.93948 13.7056 -14.3547 1.89816 
13.6109 -14.261 1.85267 13.5532 -14.2249 1.91685 13.5511 -14.1965 1.83541 
13.4846 -14.1941 1.90319 13.4773 -14.1555 1.8166 13.5215 -14.1537 1.75309 
13.5921 -14.2257 1.74305 13.5355 -14.1564 1.62539 13.6232 -14.2591 1.63803 
13.6447 -14.2836 1.74014 13.5828 -14.2093 1.49863 13.6434 -14.2836 1.41264 
13.7308 -14.3823 1.48252 13.7559 -14.4103 1.53795 13.7729 -14.4225 1.75999 
11.8922 -13.2059 1.49884 11.9344 -13.2292 1.64777 11.8971 -13.0924 1.63626 
11.8486 -12.7149 1.51104 11.8341 -12.8412 1.50797 11.8725 -12.8413 1.63646 
13.8822 -14.5325 1.80427 13.9807 -14.6191 1.60728 13.9803 -14.6201 1.7322 
13.896 -14.5519 1.91617 13.806 -14.4682 1.99565 13.9488 -14.6059 1.99103 
13.7811 -14.4686 2.1116 14.0503 -14.6911 2.01152 14.0219 -14.6599 1.90745 
14.1595 -14.7686 1.89654 14.0564 -14.6837 1.78814 14.1708 -14.7706 1.63457 
12.0368 -12.2296 1.49508 12.0604 -12.2071 1.62789 12.1063 -12.0757 1.52329 
11.882 -12.5924 1.51144 11.8599 -12.5634 1.37272 16.798 -15.778 1.76006 
16.6725 -15.7315 1.35713 16.9229 -15.7772 1.38504 14.2955 -14.8645 1.85723 
17.0477 -15.818 1.63496 14.2956 -14.8709 1.98218 14.1738 -14.7886 2.03673 
17.2978 -15.8642 1.76003 17.1726 -15.8381 1.63492 17.4233 -15.8592 1.51005 
17.4232 -15.8681 1.63512 17.5485 -15.8844 1.63511 17.673 -15.9056 1.63509 
17.6727 -15.9011 1.50997 17.7977 -15.9207 1.50989 17.923 -15.9377 1.50987 
18.1727 -15.985 1.63492 18.2979 -15.9737 1.23223 18.4228 -16.0108 1.50993 
18.9229 -16.0867 1.635 18.923 -16.1054 1.88521 18.6732 -16.0575 1.7601 
19.673 -16.1928 1.88524 19.548 -16.1802 1.88529 19.7979 -16.1722 1.50986 
11.8694 -12.9669 1.60855 11.909 -12.9669 1.73349 11.9129 -12.8415 1.76146 
11.9597 -12.9789 1.87421 11.9367 -13.0921 1.76102 12.0168 -13.0921 1.98306 
12.0116 -12.9552 2.02308 12.1172 -13.0088 2.281 12.0353 -12.84 2.10968 
11.9556 -12.8415 1.88621 12.0513 -12.7172 2.16319 12.0824 -12.8581 2.23519 
12.0963 -12.7607 2.29332 12.0734 -12.6026 2.25204 12.0156 -12.5747 1.9943 
12.0582 -12.4658 2.13524 12.0733 -12.4666 2.26102 12.075 -12.3407 2.13475 
12.0799 -12.3407 2.26025 12.0924 -12.4509 2.37215 12.0911 -12.3421 2.39129 
12.1247 -12.4709 2.47292 12.1274 -12.3349 2.49138 12.1742 -12.438 2.5734 
12.1778 -12.5899 2.54903 12.1143 -12.5809 2.41082 12.1681 -12.6977 2.5064 
12.1214 -12.7176 2.38769 12.176 -12.8229 2.4853 12.2379 -12.7051 2.60353 
12.3008 -12.942 2.67398 12.3084 -12.8289 2.67552 12.3489 -12.9406 2.71487 
12.3612 -12.7799 2.71019 12.3042 -12.7099 2.67622 12.3463 -12.6509 2.70734 
12.2517 -12.6084 2.63743 12.2283 -12.4936 2.63379 12.2998 -12.5344 2.69147 
12.2763 -12.4241 2.68513 12.2221 -12.3684 2.64054 12.1759 -12.2962 2.57627 
12.2246 -12.2214 2.63697 12.1991 -12.1691 2.57594 12.1451 -12.2063 2.49674 
12.1868 -12.0657 2.49404 12.1567 -12.0818 2.41356 12.112 -12.2159 2.38997 
12.1368 -12.0874 2.28886 12.0998 -12.2148 2.26003 12.1347 -12.0882 2.16264 
12.0995 -12.2152 2.13452 12.1368 -12.0877 2.03751 12.0956 -12.2152 2.00947 
12.0644 -12.3407 2.00997 12.0855 -12.2144 1.88463 12.1334 -12.0875 1.91273 
12.109 -12.0947 1.66159 12.0489 -12.3388 1.89195 12.0086 -12.3429 1.64108 
19.923 -16.2007 1.76012 20.048 -16.1969 1.63498 20.423 -16.2337 1.76001 
20.1731 -16.2156 1.76025 20.423 -16.2037 1.51001 20.5479 -16.2391 1.76011 
20.5758 -16.2056 1.51019 20.6611 -16.2212 1.62299 20.673 -16.2405 1.76005 
20.7874 -16.2205 1.65408 20.9083 -16.2385 1.78819 20.9571 -16.2208 1.69313 
16.2978 -15.659 1.63498 16.1725 -15.6078 1.35721 16.4231 -15.6651 1.26008 
16.1705 -15.6262 1.60751 16.0613 -15.5982 1.65409 15.7905 -15.5094 1.63792 
16.0477 -15.574 1.41274 15.6721 -15.4585 1.41274 15.6857 -15.4732 1.61841 
15.4222 -15.3738 1.4822 14.9225 -15.1935 1.78778 14.7971 -15.1335 1.73225 
14.7973 -15.1136 1.3572 14.6562 -15.0766 2.02667 13.298 -13.9617 1.50985 
13.3575 -14.02 1.57303 13.2971 -14.0134 1.62561 13.3481 -13.9876 1.51191 
13.4061 -14.015 1.49055 13.4324 -14.0425 1.56881 13.5031 -14.1167 1.5267 
13.473 -14.0888 1.62145 17.5484 -15.8944 1.76021 17.9232 -15.9524 1.76012 
17.6733 -15.9255 1.88515 17.923 -15.9642 1.88501 18.1729 -15.9907 1.76009 
18.0482 -15.9926 2.01023 18.4232 -16.0317 1.88531 18.4231 -16.0225 1.76011 
18.548 -16.0402 1.76011 18.548 -16.0503 1.88519 18.6732 -16.0674 1.88515 
18.6732 -16.0806 2.01026 18.923 -16.1194 2.01014 19.0479 -16.1238 1.88517 
19.0478 -16.1393 2.01007 19.1729 -16.1403 1.88509 19.1729 -16.1554 2.01014 
19.423 -16.1836 2.0101 19.548 -16.1965 2.01025 19.673 -16.2094 2.01043 
19.923 -16.2144 1.88532 12.2561 -14.0791 1.49093 12.1923 -13.9686 1.53685 
12.0964 -13.7235 1.25925 12.1878 -13.9681 1.6623 12.0335 -13.593 1.51 
20.423 -16.2528 1.88501 20.5479 -16.2842 2.01061 20.7979 -16.2613 1.8853 
11.9856 -13.4677 1.51023 12.0152 -13.4949 1.63543 11.974 -13.3699 1.63555 
20.8973 -16.2613 1.90348 21.0072 -16.248 1.83053 21.0324 -16.2299 1.72981 
21.092 -16.2709 1.78587 21.0537 -16.2575 1.85577 21.1493 -16.31 1.82772 
21.1894 -16.3409 1.76043 21.2074 -16.376 1.82278 21.1894 -16.3454 1.90396 
21.2526 -16.4719 1.89271 21.2279 -16.4306 1.965 21.1784 -16.3741 1.99801 
21.1958 -16.4098 2.05727 21.1194 -16.3579 2.07271 21.1322 -16.325 1.9724 
21.067 -16.3032 2.01442 21.1044 -16.299 1.928 21.0039 -16.2729 1.94453 
20.9895 -16.3078 2.05919 20.8972 -16.2943 2.02938 20.933 -16.344 2.16136 
20.798 -16.3332 2.13485 20.6897 -16.3218 2.11891 20.6612 -16.3652 2.24711 
20.7982 -16.3796 2.25846 20.7979 -16.4206 2.38457 20.9303 -16.3842 2.26128 
20.9241 -16.4257 2.38364 21.0402 -16.3987 2.29529 21.036 -16.4329 2.39994 
21.1418 -16.4279 2.32011 21.1684 -16.413 2.22627 21.231 -16.4727 2.27572 
21.2135 -16.4666 2.34088 21.2626 -16.5454 2.32472 21.3143 -16.6079 2.37785 
21.2555 -16.5528 2.44992 21.3583 -16.6576 2.43623 21.3481 -16.6301 2.52434 
21.2802 -16.5648 2.51663 21.3521 -16.6095 2.61899 21.2952 -16.5609 2.64485 
21.338 -16.5956 2.71812 21.2931 -16.5762 2.77175 21.3589 -16.6267 2.80647 
21.2924 -16.595 2.89966 21.3942 -16.6444 2.89964 21.3028 -16.6187 3.00562 
21.4351 -16.6587 3.02415 21.4874 -16.705 2.88061 21.5605 -16.7274 3.01987 
21.5226 -16.6885 3.12371 21.4109 -16.6508 3.14993 21.2996 -16.6379 3.13418 
21.2979 -16.6564 3.2603 21.4378 -16.6592 3.25381 21.423 -16.6655 3.38524 
21.5562 -16.6788 3.30423 21.5328 -16.6709 3.40112 21.6496 -16.6733 3.38239 
21.5492 -16.6682 3.509 21.6781 -16.6503 3.50788 21.771 -16.6423 3.42329 
21.7956 -16.596 3.50704 21.8542 -16.61 3.40069 21.7905 -16.6766 3.33304 
21.8757 -16.6659 3.309 21.8034 -16.7051 3.28388 21.6785 -16.7022 3.27172 
21.7259 -16.7407 3.18634 21.8361 -16.7514 3.215 21.829 -16.7842 3.15367 
21.8807 -16.761 3.19914 21.9322 -16.7194 3.24955 21.9976 -16.7518 3.17989 
21.9322 -16.8031 3.13456 22.0291 -16.7912 3.12773 22.0929 -16.7378 3.15823 
22.0436 -16.7124 3.21398 22.1381 -16.6705 3.16168 22.074 -16.642 3.22544 
22.162 -16.602 3.15898 22.1034 -16.56 3.22464 22.0302 -16.5735 3.30928 
22.0021 -16.6499 3.26476 21.975 -16.5702 3.35551 22.024 -16.4914 3.4014 
21.9107 -16.5364 3.49896 21.9807 -16.4727 3.55911 21.8676 -16.5242 3.62633 
21.9963 -16.4286 3.64026 21.914 -16.4626 3.69754 22.0199 -16.3787 3.68186 
21.9282 -16.3916 3.76199 22.025 -16.3248 3.72878 21.8721 -16.29 3.87786 
21.9521 -16.2164 3.84156 21.8618 -16.1569 3.92654 21.7379 -16.3224 3.98594 
21.7731 -16.093 3.98454 21.8096 -15.9839 3.95534 21.9586 -16.053 3.87507 
21.9042 -15.9313 3.905 22.0586 -15.9656 3.81847 22.0391 -16.0959 3.81297 
22.0089 -16.2535 3.78173 22.1188 -16.1444 3.74399 22.1467 -16.0103 3.75779 
22.1975 -16.095 3.70677 22.1558 -16.1934 3.69783 22.116 -16.2614 3.69302 
22.2159 -16.2231 3.6351 22.2435 -16.1588 3.64872 22.2926 -16.1766 3.58704 
22.2938 -16.0916 3.64265 22.3659 -16.0971 3.57584 22.3699 -15.9562 3.62562 
22.2557 -15.9718 3.69829 22.3206 -15.8344 3.66705 22.4368 -15.8312 3.5947 
22.5506 -15.7192 3.52572 22.521 -15.5923 3.54319 22.286 -15.7046 3.67615 
22.1855 -15.8537 3.74262 22.1442 -15.7158 3.75466 22.0525 -15.8386 3.81674 
21.9385 -15.6977 3.8721 22.0355 -15.622 3.81679 22.1129 -15.5416 3.76918 
22.0302 -15.4991 3.83769 22.0904 -15.4249 3.81058 22.0041 -15.3965 3.90722 
21.8857 -15.4971 3.96216 21.9098 -15.418 3.99547 21.9028 -15.3458 4.0686 
21.7962 -15.4735 4.05318 21.7974 -15.3852 4.14938 21.9105 -15.2957 4.14128 
21.7967 -15.33 4.25421 21.9175 -15.2474 4.26357 21.8242 -15.2811 4.38285 
21.9407 -15.212 4.36736 22.0201 -15.1678 4.2571 22.0166 -15.1955 4.15135 
22.0972 -15.1154 4.1573 22.0803 -15.1827 4.00649 22.1514 -15.0854 4.0566 
22.1794 -15.0328 4.19781 22.2207 -14.9993 4.15586 22.2294 -15.0281 3.98739 
22.311 -14.9479 3.99159 22.2928 -15.0143 3.87891 22.4195 -14.8923 3.87996 
22.4162 -14.8481 4.00756 22.637 -14.679 3.90379 22.67 -14.7187 3.75286 
22.5483 -14.8521 3.74917 22.6496 -14.8083 3.68737 22.7526 -14.6887 3.68239 
22.7728 -14.5897 3.78021 22.7284 -14.5926 3.8812 22.8407 -14.4668 3.88368 
22.8168 -14.4689 4.01064 22.6968 -14.595 4.00973 22.8419 -14.4252 4.16614 
[...]
CELL_DATA 40552
FIELD FieldData 1
Area 1 40552 double
0.035556432335 0.026394583864 0.026464737312 0.017912886145 0.026998090697 0.0089692714061 0.0085638494353 0.0097146453522 0.009468258703 
0.010363087298 0.0093922390921 0.016067336543 0.01955795499 0.011580355063 0.018470939573 0.010404396043 0.0099172889314 0.0065122551048 
0.013083514651 0.0051495557908 0.0043400873864 0.003711050621 0.0025328248035 0.0029420062664 0.0018420787037 0.0020926536345 0.0035310355299 
0.0035288123853 0.003336502741 0.0040370624046 0.0077515303522 0.0051990259611 0.0037913399006 0.003480622104 0.0031196453767 0.0036578875784 
0.0031934624307 0.004429707613 0.0063906529029 0.0073762368452 0.0040419590489 0.004361341395 0.0090020137446 0.015961801569 0.02078745632 
0.010653048567 0.0085147604616 0.0082293697074 0.0082066132248 0.0081609828665 0.01980075548 0.012034299822 0.0076016273394 0.01159081674 
0.0067189251823 0.014755205064 0.0087148590116 0.0064799011331 0.0093719390634 0.010235875968 0.018043231128 0.010838330283 0.0089993337824 
0.049539716186 0.018979973287 0.039802322552 0.021592118226 0.010478475688 0.01095202771 0.0089220995863 0.0096824668851 0.009235852201 
0.0070868872366 0.010743905056 0.0097332127589 0.0083483837244 0.0065583946028 0.014011005009 0.023761057919 0.014785283972 0.0061849598088 
0.0079213657798 0.0079082048321 0.0079189532816 0.0079178761909 0.043053237611 0.031704161084 0.023658182368 0.0082386797774 0.0082457116524 
0.0095551724785 0.0092384173984 0.013504008837 0.010461657851 0.020218334293 0.01850790935 0.013620630861 0.014527879467 0.008740249854 
0.0080106869744 0.0098911947463 0.01641513013 0.016493539073 0.0086180493799 0.0079948441378 0.0079172151458 0.0071052893642 0.0071704845664 
0.005947104796 0.0071751003663 0.0073349985209 0.0082166089563 0.0087284101773 0.0084171228167 0.008586073982 0.0078793388977 0.0076157102201 
0.02130054493 0.0061034081893 0.0035690389936 0.0049065295549 0.0038359375181 0.0037881276562 0.0045829720505 0.0048805034764 0.005931165498 
0.0065152286702 0.0048919795072 0.0046390697719 0.0044008776926 0.0051178431302 0.0057285647931 0.0057672609845 0.0045207698157 0.0059369289354 
0.0066064294844 0.0061947015936 0.0075934585749 0.0087636109363 0.008624711827 0.0083472781773 0.0083544722493 0.0082637870971 0.0079986090176 
0.0082605808168 0.0083642976967 0.0079990114954 0.0080951471238 0.0080975250124 0.0084543192623 0.01687554869 0.015751396742 0.016732574536 
0.018536786813 0.039324826939 0.023592137728 0.031548827608 0.012348479407 0.0086552185339 0.0085654397878 0.0091490764828 0.042312848993 
0.016469370202 0.034328698676 0.027769900623 0.026438565868 0.025876250991 0.030489059686 0.0041863186869 0.0023576793954 0.0039934079756 
0.023767888255 0.023798766942 0.015849147705 0.015844675825 0.023792740873 0.039532588115 0.015833136361 0.0079166526725 0.0079152706762 
0.0079256356328 0.0079221104688 0.015848126976 0.015893149173 0.015886283374 0.0079364056643 0.0079484790732 0.0079310316922 0.007946342994 
0.015845116818 0.023764214584 0.0079211296754 0.0079121878833 0.0079332562634 0.015844932414 0.015801733146 0.015774806717 0.0094412970547 
0.0044470918083 0.0067458085339 0.023838633428 0.025622458105 0.0079066357572 0.0078638028805 0.023997665998 0.023832657525 0.0084887383839 
0.0083471721013 0.0059377341635 0.0060498059644 0.00560731239 0.0041576869232 0.0021734070556 0.003270966879 0.0033947834244 0.0028672270017 
0.0034954465946 0.0055432142269 0.0048483570583 0.0039327555719 0.0028922500633 0.0031430230621 0.0033851302085 0.0036959820599 0.0023426952725 
0.0042567610206 0.0044802024739 0.0043584687278 0.00576963507 0.0059248876494 0.0090070835606 0.0064904515847 0.014060340463 0.0076040536075 
0.0090655612511 0.0091112088483 0.0087625106845 0.0081630661852 0.0072141902359 0.0061975684103 0.0057684658272 0.0053569510785 0.0045207963489 
0.0028484315461 0.0029593217435 0.0031571588755 0.0078429975448 0.0047442529581 0.0063442211624 0.0030673495413 0.0045783018065 0.0049399123656 
0.0034559145705 0.0032609274733 0.0030947061076 0.0051605987405 0.0052683181914 0.0060660624606 0.0082049833693 0.0073487558019 0.01017346847 
0.007398036543 0.0070761915402 0.0072486856495 0.0071403074189 0.0073768170299 0.0091607153833 0.0082496222293 0.0055260683 0.0054552129714 
0.0064558355131 0.0082752664685 0.0072547071651 0.0058127135591 0.004471444109 0.0043508595464 0.0045724036198 0.002403564441 0.003616651334 
0.0060960748971 0.0049915721408 0.0038478312287 0.0016174986207 0.0019322673452 0.0041294596526 0.0043020665585 0.0032322812445 0.0031019701587 
0.0027136322443 0.0031866836806 0.0036545518123 0.0034387946734 0.0041639965314 0.004618348949 0.0037955583905 0.0033233960602 0.0037263515415 
0.0077405980453 0.0087244635934 0.0083983576696 0.0070669362752 0.006576858021 0.0054796272717 0.003605122196 0.0057469302572 0.0041876134778 
0.009945212954 0.009840440499 0.0073001165575 0.012395415473 0.013163245466 0.0072709558048 0.012581200031 0.0081504212258 0.0097044700969 
0.0069416259421 0.0081547843971 0.0067563332 0.0087330910542 0.0075483722641 0.0054953893308 0.0036795273502 0.002843579992 0.0036241707455 
0.0032283981233 0.0028668320682 0.0033005511656 0.0045619617849 0.0071111796558 0.0087823243019 0.008757473751 0.0084594661341 0.0074566778392 
0.019104475818 0.01952520204 0.010407019143 0.01142931299 0.010202700501 0.0096407399312 0.0093001567029 0.0089363814562 0.015575908057 
0.0099711261757 0.0093021856575 0.0062759413285 0.0054296418758 0.0059359417584 0.010294945832 0.0058145283627 0.0061392346378 0.0071409583636 
0.0088059733887 0.0059382665772 0.0083154695216 0.0091783956903 0.0093554807673 0.0074299923666 0.0069255741469 0.0070475512261 0.0060211398424 
0.008634578638 0.011138242484 0.0076640852019 0.0071533559438 0.0049642809681 0.0086646929909 0.0097335114891 0.0066277660079 0.010352140307 
0.009362840241 0.01978347349 0.024247176405 0.01350353366 0.0070709296848 0.0063558947268 0.0078405235338 0.0091598141485 0.0089460777747 
0.010811735284 0.011347801671 0.013550060147 0.01676494598 0.014033052202 0.0093838295555 0.0099150837628 0.018926700977 0.01832118252 
0.013441028944 0.023497885839 0.047966945047 0.051351306408 0.035236208251 0.01323497164 0.013154721752 0.014222661866 0.018908418505 
0.0059587205872 0.011523692705 0.025894445173 0.016050871815 0.0081864649438 0.035908781186 0.033210236187 0.018989447041 0.0104578361 
0.012666604453 0.013678525943 0.014593025085 0.020898776909 0.013223960704 0.017520947583 0.018343424055 0.012383165595 0.018852165138 
0.010349721154 0.0094612951514 0.021183634263 0.018087421455 0.0078889834305 0.0067683106054 0.026933730897 0.010667636455 0.008943079322 
0.007944699838 0.0080772528631 0.0097312663132 0.0094496203205 0.0090982834018 0.00924030531 0.0092976971915 0.009940737178 0.0088343509903 
0.0095455450388 0.0089928878763 0.010055156735 0.010182293997 0.011578722974 0.0099324922591 0.010177185141 0.012242043755 0.0086056825196 
0.0072255871342 0.00961037445 0.0096506499287 0.0070693295918 0.0054880589222 0.0052988605345 0.0061629587118 0.0072773342186 0.0083879633971 
0.0085269125872 0.0088659240454 0.0073480661173 0.0094256601945 0.007083151731 0.0058572038076 0.004512714778 0.0044977905037 0.014767477001 
0.0143662672 0.0091103016172 0.010159300499 0.010476559027 0.0085607267896 0.0062261173995 0.0068493494935 0.0060127664408 0.00583997446 
0.0052450036655 0.0066221408679 0.0035797670038 0.003695071898 0.0047121855855 0.0080349616121 0.0054181154065 0.0052463092654 0.0042266999501 
0.0065034075059 0.010066528777 0.010221065981 0.004930276418 0.0065526631519 0.0058198133911 0.0077848263198 0.0072228058123 0.012635130424 
0.01790231625 0.0070115637428 0.015939507974 0.014124195732 0.01731951189 0.00940759134 0.0079068969951 0.0079236946329 0.007921148448 
0.0079429266072 0.0079486600514 0.0080435112492 0.0082248784074 0.00827245527 0.0081901616748 0.008225409806 0.0070197540961 0.0071976129414 
0.0072444532269 0.0070938775528 0.0093623865724 0.0057188251621 0.0052490179989 0.0049806008938 0.0037143955445 0.0052379885987 0.0049327581814 
0.004131195624 0.0029252847121 0.0033988760647 0.0037292744595 0.0057854373607 0.0069076102392 0.0065882168842 0.007099548368 0.0067215926493 
0.00723725257 0.0071507631092 0.0063096709795 0.0082452192057 0.008190088569 0.0081165968068 0.0080873174479 0.0080865077231 0.0078513012647 
0.0080415430575 0.0080059027183 0.0081311182374 0.0080480623649 0.0081856900177 0.0081866386481 0.009809188169 0.0090101217913 0.0082246426491 
0.0083545474328 0.0076437934758 0.0071753946865 0.014410626289 0.016486594372 0.016376726396 0.016473629567 0.049269000437 0.025109652907 
0.024815079874 0.024852470722 0.0082699444004 0.016513825206 0.0082020996613 0.0081699795501 0.016290557881 0.016091946378 0.024330687723 
0.016149399088 0.024821716483 0.017575893853 0.016131780189 0.01610332046 0.016084517467 0.016074521563 0.015930222473 0.015982957273 
0.015890998696 0.024076135681 0.023971237798 0.015943413385 0.032088583315 0.016226884804 0.032185368468 0.016071517885 0.0080661721315 
0.0080394439114 0.016023498777 0.0080622586303 0.0080239816846 0.015960594223 0.0080443418684 0.0080111748524 0.015942630007 0.008016567077 
0.01598259414 0.015948851185 0.047964057456 0.02409677013 0.016133920825 0.016196769009 0.01588647092 0.016573659879 0.0083378591638 
0.0081223766734 0.016847298426 0.016358469539 0.0081996158223 0.008242080698 0.024343595205 0.018822324872 0.015189457528 0.0082370961728 
0.016622900895 0.016724891567 0.0083597099877 0.0083628828122 0.0083624278976 0.0083556710006 0.016665793761 0.016690279279 0.016593390722 
0.016581943995 0.0083217215529 0.016529784193 0.016472948037 0.016307738857 0.032453238122 0.016239257532 0.016182154254 0.016124068913 
0.040578044795 0.032395642064 0.016316891161 0.008150493651 0.0081340839225 0.0081175644649 0.0080834062107 0.016300489981 0.0080628940553 
0.014655050483 0.01534135212 0.01759701187 0.0095732053005 0.00799829494 0.0079974873861 0.0079854280364 0.0079787639609 0.0079706052877 
0.0079695970317 0.0079603578953 0.0079472530504 0.007944515101 0.0079107113605 0.0079183208932 0.0079110556496 0.0078966782032 0.0078948055981 
0.0078876357167 0.0078909782332 0.0078897211037 0.0079180990168 0.0079121154779 0.0079382895018 0.007917199553 0.0079394862823 0.015828331452 
0.015870145598 0.015916083566 0.0079418195344 0.0079553682923 0.007993087917 0.0080137035643 0.0080096111412 0.0080369411972 0.0080769154047 
0.0080828097973 0.0079789828424 0.015968867173 0.016039874049 0.0080265513293 0.0079458813235 0.039911624908 0.016023377573 0.0080374806182 
0.03400780086 0.026823903732 0.031843886281 0.023744123104 0.0079158853389 0.007894653475 0.023668638729 0.015767120686 0.0078772605603 
0.0078750739527 0.0078928106087 0.015785449597 0.0078630537318 0.0078627703458 0.0078808205661 0.0078808201735 0.0078626982051 0.0078679395933 
0.0078638738239 0.0078631694595 0.0078516896069 0.0078548582917 0.0078426885775 0.0078446951369 0.0078647421125 0.008200977308 0.0065999873305 
0.0047473816103 0.0042369102152 0.0056024402579 0.0058399530818 0.0048569652434 0.0041788248072 0.00386090053 0.0035248703633 0.0034530121973 
0.003593160836 0.0030695001781 0.0068067910873 0.0021686235696 0.0028317072537 0.0044871016299 0.0029658546665 0.0032185231877 0.0049731307954 
0.0065310668481 0.0078794555087 0.0096834656295 0.0088227278044 0.0087526555487 0.0089326197755 0.0091459887993 0.0093389687832 0.0086893178971 
0.010703178745 0.0061040355335 0.0033216455072 0.0039606145039 0.006510540292 0.0051191349772 0.0070814355302 0.0044736562319 0.0064003382661 
0.0082709658355 0.005530407322 0.005193058413 0.0047042207117 0.0065607706856 0.0063138619128 0.0089292348473 0.0073845684437 0.0088936110545 
0.0097993324487 0.0087956974712 0.0087972121644 0.0086765532572 0.010133193067 0.006284163231 0.0065845337879 0.011210813391 0.0067110868363 
0.0060343048355 0.0039061222979 0.0068088484528 0.007201824137 0.0068581529547 0.0039342850977 0.0048133801663 0.0060966805324 0.0088526987023 
0.0099346793164 0.0058792047447 0.0060956339211 0.0067197632791 0.0086410415283 0.010099791332 0.0091970357363 0.0086608114911 0.0084142970117 
0.0081900199079 0.0080782962344 0.0079473578192 0.023761721142 0.031304125325 0.015832704736 0.015825212012 0.015130141545 0.015018309948 
0.018177355961 0.0081609753195 0.0078363236184 0.0074005991997 0.0083587917606 0.0090479927569 0.0076036583234 0.0065894927542 0.0081777697084 
0.0079942257409 0.0079814494346 0.0079644625366 0.0076361057541 0.0079527642445 0.015877613186 0.0079054948101 0.0078481555347 0.01568148974 
0.0078339146411 0.015638168172 0.02349883236 0.015676251672 0.015635168894 0.0078959674405 0.007886132457 0.0079829288592 0.0081645637456 
0.0081650084587 0.0076837714378 0.007571925235 0.0088949257687 0.0099762842428 0.011217983278 0.009824644566 0.010013594313 0.0055177014884 
0.012495623535 0.0082936993824 0.0107172006 0.0055190912805 0.0083553956759 0.0034505182283 0.0017985898054 0.0024866389946 0.010150968092 
0.014727613017 0.011165616672 0.0063527691863 0.0068367125007 0.0083204029864 0.010226779612 0.0099194245444 0.012543543128 0.0097089069871 
0.0084664395464 0.0061083717361 0.0040810804127 0.003134966895 0.0049682173419 0.0035750938714 0.0041577292099 0.0048222965585 0.0080805941791 
0.0051371242821 0.0046122848394 0.0043207225278 0.0036387034233 0.0036602661664 0.0028607554833 0.0037219260867 0.0048093350346 0.0051612932587 
0.0045702118463 0.0038668240883 0.003276827373 0.0039983624454 0.0043933463075 0.0050778288179 0.0049051628624 0.0061153708089 0.0067636177687 
0.0082124279718 0.0069893134125 0.0083099607772 0.0062218367188 0.0086324022414 0.00479800349 0.0053238410303 0.0054348049481 0.0078270992788 
0.0058090619905 0.0038843988152 0.0021118859064 0.0020413792696 0.003671092047 0.0025408222067 0.0032516944569 0.0032182391534 0.0047006985487 
0.004697832493 0.0041565971595 0.0044155844329 0.0048383010099 0.0071523680803 0.0043972476303 0.0065532223839 0.0059621700204 0.018531192995 
0.013833289666 0.016963874058 0.0078149527542 0.007833468725 0.0078384083458 0.0081118351654 0.00784787675 0.0078347394463 0.007854341763 
0.0078385048095 0.0078437062036 0.0078576707246 0.0078601190513 0.0078639215339 0.022520093619 0.01553925143 0.015595541554 0.016788729703 
0.017761487109 0.0087952470169 0.025247381615 0.019042191809 0.0070182035162 0.017474734126 0.0078519276199 0.0078627645131 0.0078704757013 
0.015704303041 0.015819709344 0.0078876938022 0.0078905084598 0.0079207878184 0.0079391991055 0.0079446192087 0.0079393679674 0.017691020291 
0.010058885843 0.025723721272 0.038621693514 0.015170805201 0.016094991757 0.0080755198338 0.0089612238853 0.0098840719139 0.0094671374613 
0.0088175210899 0.008087106997 0.0080872796885 0.016126606502 0.0091571115454 0.010720700201 0.010798447288 0.01094505453 0.017185017855 
0.017937913253 0.0074821378055 0.014441297766 0.0166740975 0.020146543754 0.0093392620299 0.0096223282791 0.018921672675 0.019353844122 
0.013466418713 0.010100471393 0.021582013543 0.0083428523006 0.0085930834207 0.016547303907 0.0084941531658 0.0083964367754 0.016462146996 
0.0082693924246 0.0083019356847 0.0082593570849 0.0082880568 0.0081737138925 0.016339513271 0.016272534925 0.01625181879 0.0081437848274 
0.0080780217582 0.016154647357 0.0161542659 0.016163256399 0.024175902973 0.024044804833 0.016018969051 0.015960877953 0.023920532908 
0.015928570872 0.0079513893095 0.015919480444 0.023799664205 0.015971456894 0.008039764292 0.023860877301 0.04767729896 0.023867810641 
0.015880460167 0.031795395317 0.015922037287 0.03189077756 0.015888179945 0.0079354277821 0.039779436755 0.015850292263 0.031749032135 
0.023749041337 0.0079285109099 0.023813817367 0.015854619324 0.010831741738 0.015899657722 0.015836148004 0.031797494696 0.015925921883 
0.015936511321 0.015957282466 0.016014937568 0.016021563267 0.023913976377 0.016037714922 0.015997705542 0.016027079396 0.016090839461 
0.016107143668 0.01623732345 0.024380996088 0.016252236124 0.016304000385 0.016484316103 0.0081912065922 0.0081988910415 0.0081812028235 
0.0082632842977 0.008378809317 0.016877309403 0.036110238717 0.041860867949 0.033137317334 0.050524468192 0.050207791574 0.016809411502 
0.016877759936 0.016747526037 0.025027633491 0.024629527639 0.016362344436 0.016405958053 0.016448519061 0.0082622490608 0.008164563188 
0.016327758223 0.016181975117 0.01613324812 0.0081162035106 0.0081012896976 0.016295739633 0.024507977398 0.026656014941 0.042083179037 
0.040177826469 0.024104279873 0.031986830267 0.031927945528 0.039849992835 0.039729595262 0.038917896844 0.0079967478869 0.0079688610216 
0.0086969845227 0.0066596713375 0.0059463735775 0.0066792436232 0.011186342096 0.03424844136 0.0081937262813 0.0080875219072 0.013415106972 
0.01787581599 0.028152002266 0.0094586636626 0.018427554449 0.016287830297 0.019468654118 0.03757137008 0.014021394724 0.026598179187 
0.01314949976 0.029233253866 0.018243018625 0.021888461155 0.016323596003 0.032839043596 0.0165017895 0.017123963478 0.035160261999 
0.02718048283 0.0055101207309 0.010218967372 0.017014995518 0.016795260395 0.012988817003 0.031997660805 0.013850239481 0.017535735689 
0.010776898333 0.0080614444289 0.021913738039 0.025509790328 0.0099212045736 0.017702337868 0.029563366308 0.040872894658 0.018397399706 
0.010980334532 0.0090649928245 0.016930197353 0.016981705332 0.0077036151941 0.016360239581 0.0088236169772 0.0097621552119 0.016105906713 
0.013723652228 0.010779463842 0.0083806325754 0.0088260096104 0.0094650530218 0.018386167542 0.016421360413 0.018079526575 0.010950342516 
0.0092393519381 0.0072388884842 0.0056619310885 0.0073283356312 0.0037765961675 0.005295521997 0.0051629513134 0.0024244020705 0.0024788968942 
0.0029140613503 0.0052567540699 0.0049349585019 0.003894414191 0.0043302020773 0.0039746610349 0.0053190407725 0.0069625667897 0.0055112076867 
0.0043918752621 0.0028058087869 0.0026509334026 0.0021721156636 0.0026590310245 0.0027232288451 0.0017424971921 0.0045552210946 0.0015094874677 
0.0016186294208 0.0020563340596 0.0021090738794 0.0026344725576 0.0027008292497 0.0027728973648 0.0039664569055 0.002431112158 0.0025399058204 
0.002669283602 0.0028445492668 0.0023724627307 0.0023446895835 0.0023827185348 0.0033901789111 0.0025190257015 0.002187195142 0.0019767433714 
0.0025217637826 0.0056210400869 0.0075457343864 0.0048699953392 0.0019800927597 0.0059762516957 0.010269432491 0.019058436103 0.0080370022006 
0.014222484564 0.0092912486879 0.01033490909 0.014519923727 0.0079226908569 0.0079161468226 0.011768221327 0.01702728627 0.014982043024 
0.014487210244 0.01576903891 0.0092093318208 0.011484072004 0.0072008817349 0.010166971581 0.0090501850294 0.0098358119364 0.0095506525988 
0.0077249089927 0.0082195439886 0.0094047458774 0.0088520156249 0.008943884625 0.008981412537 0.008965294217 0.0089123383038 0.010298176462 
0.0097336905474 0.017821524022 0.018148218657 0.019976531432 0.0095686654313 0.018545456631 0.015117676192 0.0053329858913 0.0047278727187 
0.0054834956474 0.0088031187673 0.0071989713124 0.0065433371171 0.015628080017 0.014031670979 0.0095737699415 0.018215460786 0.021972621308 
0.010181755383 0.0083980587332 0.0064399496769 0.0059436791588 0.0052003425882 0.0047317379199 0.0054691977339 0.0054081050575 0.0040234058622 
0.0041026631825 0.0060043388766 0.012538458027 0.00683801961 0.0049319057152 0.0038264604922 0.0064531286021 0.0042738566984 0.0036580374265 
0.0030068088711 0.0031985800015 0.003845414703 0.00479017635 0.0034822812684 0.0044951256738 0.0032557176925 0.0078752692317 0.0064213974447 
0.0084324849464 0.0076397444262 0.0080684703776 0.0098133688343 0.0075899363006 0.0080109020567 0.0059182821108 0.0060947191757 0.0096367518895 