# vtk DataFile Version 4.2
vtk output
ASCII
DATASET POLYDATA
POINTS 19432 float
14.5792 -14.8118 1.1649 14.4474 -14.7408 1.24499 14.5429 -14.7831 1.04268 
14.3242 -14.649 1.02287 14.1976 -14.5709 1.17606 14.1975 -14.5632 0.92561 
14.323 -14.6623 1.27269 14.4474 -14.7438 1.37007 14.3224 -14.6651 1.39757 
14.4476 -14.7448 1.49531 14.323 -14.6671 1.64743 14.449 -14.7479 1.74519 
14.323 -14.6704 1.77243 14.4483 -14.7609 1.99505 14.3097 -14.6779 2.0345 
14.2165 -14.6097 2.01905 14.1967 -14.5789 1.67576 14.1242 -14.5185 1.62662 
14.1976 -14.576 1.42578 14.1238 -14.5174 1.37609 14.1974 -14.5748 1.30084 
14.1237 -14.5162 1.25132 14.1248 -14.512 1.00039 14.0173 -14.4282 1.12015 
14.0034 -14.4116 0.901073 13.8555 -14.2757 1.05115 13.7842 -14.1957 0.867493 
13.8827 -14.2996 0.849609 13.7383 -14.149 1.0503 13.6505 -14.0427 1.12062 
13.6531 -14.0392 0.852122 13.42 -13.7188 1.14822 13.4295 -13.7179 1.02345 
13.5027 -13.8447 1.14853 13.3436 -13.5959 1.14845 13.4139 -13.7186 1.27321 
13.338 -13.5953 1.27355 13.4094 -13.7191 1.39836 13.333 -13.5957 1.5236 
13.4079 -13.7195 1.52339 13.4099 -13.7186 1.64816 13.338 -13.5933 1.64845 
13.4088 -13.7184 1.7736 13.4005 -13.7195 1.89939 13.4832 -13.8438 1.90023 
13.4732 -13.8447 2.02352 13.3858 -13.735 2.04097 13.4359 -13.838 2.1526 
13.5515 -13.9714 2.14928 13.5073 -13.9715 2.28285 13.4611 -13.9698 2.39782 
13.5716 -14.0887 2.40432 13.503 -14.0564 2.5024 13.4016 -13.9402 2.50355 
13.3602 -13.8462 2.40184 13.3198 -13.8429 2.52357 13.1986 -13.6262 2.41313 
13.2625 -13.6205 2.17604 13.3224 -13.593 1.89955 13.2396 -13.4583 1.92405 
13.2232 -13.3441 1.64885 13.2747 -13.4694 1.64886 13.2254 -13.3441 1.52351 
13.2718 -13.4704 1.52384 13.2293 -13.3437 1.39835 13.2738 -13.47 1.39864 
13.2372 -13.344 1.14806 13.2811 -13.4706 1.14819 13.2936 -13.4695 1.02338 
13.3546 -13.5953 1.02377 13.2134 -13.2065 0.999345 13.2471 -13.3439 1.02304 
13.251 -12.0927 0.638592 13.2353 -12.2321 0.656444 13.179 -12.2338 1.02417 
14.9077 -14.9621 1.11328 15.0341 -14.9948 0.77207 15.1607 -15.0595 0.927473 
15.0677 -15.0483 1.42781 15.2006 -15.0826 1.02426 15.1976 -15.0906 1.2454 
13.8941 -14.3119 0.986243 13.8904 -14.317 1.24521 14.7271 -14.8829 1.12445 
14.6986 -14.8737 1.24515 14.5733 -14.8127 1.30073 14.6989 -14.8754 1.37038 
14.6983 -14.8803 1.49528 14.9494 -14.9917 1.37038 14.8239 -14.9585 1.81611 
14.949 -15.0155 1.74516 15.0738 -15.0684 1.64806 15.199 -15.1224 1.6481 
15.203 -15.1321 1.76991 15.3316 -15.1769 1.66778 15.4426 -15.2315 1.87027 
15.0746 -15.0916 2.12025 15.4371 -15.2369 2.0111 15.2178 -15.1641 2.28431 
14.949 -15.0496 2.30076 14.9634 -15.0304 1.89183 14.823 -14.9772 2.14843 
14.7046 -14.8991 1.87651 14.5754 -14.8387 2.17594 14.4286 -14.7646 2.27017 
14.5527 -14.8415 2.31423 14.3274 -14.7556 2.53183 14.2374 -14.659 2.37729 
14.3067 -14.693 2.29001 14.2475 -14.6368 2.12953 14.2381 -14.641 2.26204 
14.1384 -14.5614 2.24512 14.141 -14.5497 2.10312 14.0265 -14.4439 1.99061 
13.965 -14.4009 2.1763 13.9784 -14.4012 2.05089 13.8902 -14.3126 1.9952 
13.951 -14.3742 1.91651 13.8706 -14.2931 1.74936 13.7851 -14.2055 1.79891 
13.7653 -14.1874 1.62044 13.8552 -14.2767 1.55084 13.7659 -14.1864 1.49469 
13.8534 -14.2778 1.42583 13.7657 -14.1864 1.36946 13.8496 -14.2785 1.30084 
13.7643 -14.1865 1.24527 13.8492 -14.2775 1.17563 13.7637 -14.1835 1.12062 
13.7345 -14.1492 1.17579 13.6489 -14.0433 1.24569 13.5933 -13.9687 1.1487 
13.5889 -13.9686 1.27343 13.6447 -14.0464 1.37122 13.5823 -13.9698 1.39802 
13.6434 -14.0493 1.4953 13.5834 -13.9677 1.52317 13.6456 -14.0488 1.61994 
13.5857 -13.9669 1.64858 13.7304 -14.1486 1.7105 13.5685 -13.9524 1.75997 
13.6337 -14.038 1.9913 13.7196 -14.1351 2.02608 13.6657 -14.0941 2.1476 
13.5714 -13.9687 2.02799 13.6316 -14.1057 2.29973 13.7295 -14.188 2.25491 
13.7403 -14.2437 2.38419 13.6636 -14.2604 2.60994 13.5033 -14.1195 2.64908 
13.4521 -14.1556 2.83435 13.4047 -14.0416 2.71641 13.3656 -14.0835 2.89371 
13.3671 -13.9605 2.64384 13.1726 -13.8406 2.9 13.1697 -13.9677 3.14816 
13.0845 -13.851 3.15303 13.1337 -13.9846 3.28786 13.3184 -14.219 3.27269 
13.1754 -14.0868 3.40135 13.0632 -13.9058 3.33957 13.1034 -14.0998 3.64945 
13.189 -14.2197 3.6475 13.1594 -14.2233 3.7732 13.253 -14.3432 3.77296 
13.2231 -14.3433 3.89692 13.1275 -14.2236 3.90129 13.1911 -14.3435 4.02285 
13.2976 -14.4727 4.02338 13.2657 -14.4713 4.14907 13.1586 -14.3405 4.15494 
13.2399 -14.4694 4.27311 13.1606 -14.3744 4.30723 13.2253 -14.4765 4.40207 
13.1671 -14.397 4.44897 13.1057 -14.311 4.39198 13.1319 -14.3428 4.52961 
13.094 -14.2637 4.47649 13.0583 -14.2358 4.38374 13.0432 -14.1521 4.44911 
13.0076 -14.1514 4.32752 13.0315 -14.187 4.25407 13.0084 -14.1356 4.18665 
13.062 -14.2074 4.13762 13.0931 -14.282 4.28054 13.0978 -14.2239 4.0215 
13.0058 -14.091 4.02994 13.036 -14.0955 3.8959 13.0648 -14.0949 3.7726 
12.988 -13.9766 3.77518 12.9552 -13.9678 3.89783 12.9047 -13.8416 3.77194 
12.8804 -13.8514 3.91437 12.931 -13.9678 4.01829 12.8808 -13.9001 4.0743 
12.835 -13.806 4.01517 12.8418 -13.8337 4.15298 12.8151 -13.7622 4.10306 
12.7971 -13.7282 4.01064 12.7762 -13.6633 4.07472 12.765 -13.6408 3.97781 
12.8126 -13.7354 3.92509 12.7515 -13.5871 3.86664 12.8257 -13.7191 3.80044 
12.7727 -13.597 3.74825 12.7147 -13.4812 3.79281 12.6876 -13.398 3.85825 
12.7315 -13.5424 3.97773 12.726 -13.441 4.02749 12.7046 -13.3653 3.9636 
12.6663 -13.3182 3.87728 12.6938 -13.2653 3.94242 12.6496 -13.2663 3.82546 
12.6736 -13.3668 3.759 12.6428 -13.2656 3.72726 12.6842 -13.3581 3.62694 
12.6329 -13.2166 3.60957 12.6955 -13.3435 3.52263 12.7855 -13.5788 3.62919 
12.852 -13.7163 3.667 12.8163 -13.5941 3.52275 12.7899 -13.4838 3.39301 
12.8648 -13.6232 3.39537 12.8935 -13.7274 3.52549 12.9426 -13.6963 3.27823 
13.0059 -13.7937 3.2767 13.031 -13.9144 3.4731 13.016 -13.7512 3.15965 
12.9349 -13.8429 3.64753 12.9569 -13.6571 3.15591 12.8702 -13.5717 3.26667 
12.9063 -13.5431 3.10083 13.0669 -13.6356 2.80496 13.0164 -13.4726 2.64909 
13.0985 -13.5998 2.64636 13.0602 -13.4747 2.53214 12.9461 -13.3436 2.64742 
13.0373 -13.348 2.40565 13.1168 -13.4858 2.39395 13.141 -13.6026 2.53423 
13.2024 -13.5745 2.2806 13.1419 -13.4558 2.261 13.192 -13.5059 2.17059 
13.081 -13.3398 2.26817 13.1598 -13.3523 2.02156 13.1676 -13.2184 1.77373 
13.1392 -13.2011 1.88193 13.133 -13.0925 1.77384 13.0996 -13.0927 1.89859 
13.0731 -13.2311 2.13901 13.018 -13.0963 2.14604 13.025 -13.216 2.26562 
12.9695 -13.0932 2.27315 12.9282 -13.2203 2.52324 12.8725 -13.0942 2.52197 
12.8223 -12.9689 2.52326 12.9637 -12.9559 2.15998 12.8928 -12.8671 2.26451 
12.7769 -12.8442 2.52358 12.778 -12.9681 2.64547 12.7239 -12.8313 2.65927 
12.7358 -12.968 2.77246 12.7859 -13.0932 2.77251 12.7478 -13.0928 2.89764 
12.8014 -13.2203 2.89867 12.7642 -13.2213 3.02255 12.6983 -12.9681 2.89758 
12.6642 -12.9676 3.02327 12.6416 -13.0965 3.2704 12.5929 -12.9728 3.27801 
12.6122 -13.0937 3.39846 12.6726 -13.2181 3.36275 12.647 -13.2144 3.49437 
12.5975 -13.0904 3.52646 12.5984 -13.0866 3.65906 12.6186 -13.1697 3.7122 
12.6204 -13.0858 3.75611 12.6019 -13.0275 3.71261 12.6518 -13.0424 3.81177 
12.6411 -12.9403 3.76605 12.7246 -12.944 3.86885 12.7301 -13.0811 3.93377 
12.8893 -12.9777 4.07092 12.8865 -12.5909 3.89404 12.7877 -12.6254 3.80741 
12.6844 -12.8736 3.79847 12.644 -12.7899 3.71643 12.6619 -12.6958 3.71219 
12.6944 -12.5369 3.68977 12.8274 -12.471 3.77886 12.7095 -12.4492 3.66878 
12.8167 -12.2151 3.64126 12.939 -12.2257 3.76172 12.8942 -12.0985 3.64284 
12.7213 -12.2352 3.57833 12.8531 -11.9825 3.5418 12.6897 -12.1542 3.5144 
12.6221 -12.2618 3.51907 12.6285 -12.3591 3.56844 12.6246 -12.4989 3.61364 
12.5422 -12.4721 3.52769 12.5592 -12.6025 3.5758 12.5198 -12.5905 3.5103 
12.5277 -12.6925 3.53074 12.5027 -12.654 3.4481 12.5079 -12.7285 3.40327 
12.4747 -12.5412 3.35305 12.4832 -12.5719 3.24811 12.4602 -12.4779 3.2886 
12.4733 -12.47 3.15758 12.5079 -12.5929 3.1479 12.5164 -12.7183 3.2752 
12.5423 -12.7133 3.1515 12.5509 -12.8427 3.28344 12.5297 -12.8237 3.3733 
12.5236 -12.7929 3.47871 12.5414 -12.8875 3.46327 12.5386 -12.8587 3.52673 
12.5584 -12.9654 3.5162 12.5659 -12.9013 3.58684 12.5826 -13.0092 3.60193 
12.5796 -12.9346 3.65344 12.5735 -12.8463 3.64524 12.5457 -12.7955 3.57155 
12.5654 -12.702 3.60544 12.6184 -12.747 3.68239 12.6243 -12.6194 3.65611 
12.6126 -12.8825 3.69682 12.5659 -12.9698 3.40208 12.5842 -12.8438 3.14913 
12.5768 -12.7231 3.03064 12.66 -12.7444 2.76625 12.6906 -12.8597 2.78894 
12.6844 -12.6901 2.64716 12.7414 -12.7177 2.51701 12.7206 -12.4712 2.39644 
12.7898 -12.7121 2.38874 12.7724 -12.4731 2.26734 12.8034 -12.5925 2.27135 
12.9255 -12.8145 2.14827 12.9696 -12.5923 1.89814 13.0203 -12.9677 2.02337 
13.0735 -12.8425 1.77335 13.0633 -12.9677 1.89827 13.1018 -12.9675 1.77382 
13.1095 -12.8423 1.64906 13.1299 -12.9676 1.64873 13.1453 -12.9676 1.52333 
13.1312 -12.8424 1.52349 13.1419 -12.8424 1.39806 13.1521 -12.9677 1.398 
13.1647 -13.0927 1.52323 13.1899 -13.2184 1.52325 13.1691 -13.0931 1.398 
13.1951 -13.2182 1.39818 13.1847 -13.0928 1.14805 13.2058 -13.2184 1.14809 
13.5981 -13.9704 0.89866 13.5091 -13.8439 1.02365 13.1596 -12.8425 1.14784 
13.1705 -12.8424 1.03937 13.1698 -12.9676 1.14794 13.1668 -12.7173 1.02265 
13.1447 -12.7173 1.27292 13.1654 -12.5923 1.02265 13.2038 -12.7837 0.720876 
13.1804 -12.9437 1.01101 13.1937 -12.6869 0.812852 13.1926 -12.3335 0.88322 
13.1577 -12.3422 1.14786 13.1564 -12.4673 1.14803 13.1416 -12.3423 1.27331 
13.1435 -12.2173 1.27346 13.1169 -12.3423 1.39869 13.1477 -12.0923 1.27362 
13.1134 -12.0685 1.39204 13.0617 -12.1197 1.51804 13.0497 -11.9948 1.52338 
13.1151 -11.9345 1.38621 12.9693 -11.6893 1.64848 13.1037 -11.7001 1.41691 
12.9678 -11.5643 1.64908 12.8855 -11.6049 1.78123 12.8878 -11.4685 1.76892 
12.9677 -11.4394 1.64922 12.9046 -11.3431 1.74329 12.9816 -11.2999 1.61687 
12.9501 -11.2063 1.64208 12.8766 -11.2112 1.77165 12.8431 -11.3432 1.87231 
[...]
CELL_DATA 38860
FIELD FieldData 1
Area 1 38860 double
0.010992209866 0.018956429674 0.0092840076274 0.0092230529507 0.0092384378412 0.0092600938771 0.018471250511 0.018563345481 0.0092716896221 
0.018587854961 0.021061306017 0.015205525132 0.025150454645 0.015352680897 0.01177078833 0.01927163223 0.011790108569 0.0058667872362 
0.0095882741913 0.0058524291184 0.005819951431 0.017209532706 0.01620233446 0.014104928987 0.015810822213 0.018548190003 0.0094224222758 
0.0090491181204 0.0090642751102 0.0090681243738 0.018008979383 0.0090463666923 0.009028652986 0.009024216328 0.0090577602206 0.0092575134823 
0.0094047536587 0.0092254800286 0.010059278653 0.0089737169262 0.011539928927 0.012108595973 0.010982158818 0.0098042995209 0.008503789569 
0.0083517456874 0.0085966512813 0.007676445761 0.016986498658 0.033031543246 0.035841211948 0.022549087708 0.022380202972 0.023341969302 
0.016978648819 0.018742732594 0.0084898880853 0.0084093421481 0.0087009865631 0.0084206028657 0.0083836039802 0.0087296123468 0.016764169893 
0.016790636749 0.017402041616 0.0087489483071 0.0088962756999 0.026006580403 0.03429188658 0.01511994763 0.0041574008607 0.017120188264 
0.021891566772 0.0093109467735 0.0093314891908 0.0087550702864 0.0098701004934 0.017739073975 0.017257660063 0.053300326499 0.026174453581 
0.024338693808 0.015630829399 0.016270059965 0.027544096087 0.0083252757134 0.0086767977639 0.020105270767 0.052197035943 0.027369959765 
0.040866641585 0.025331717245 0.026497944863 0.028705452122 0.030057644685 0.02584364403 0.022388998994 0.04054763047 0.035173911034 
0.021895219275 0.010544908896 0.021387256878 0.024120852274 0.0054218228714 0.018141877552 0.009837036974 0.0057884287457 0.0085135360564 
0.009728546244 0.007058787942 0.011982256056 0.018681017424 0.0037395305892 0.0081398001291 0.0073315438083 0.011725239495 0.015735905175 
0.011590391196 0.013360912974 0.0079762167212 0.0079240420264 0.0079244338648 0.0078545847505 0.0077625383666 0.0078262902943 0.0078504425372 
0.00800025207 0.006066027096 0.0027685898332 0.0085740093278 0.0084970737832 0.0058429914705 0.0059367847097 0.0060138454328 0.0061165950385 
0.0061489584593 0.0063213058107 0.0063220072668 0.006373706904 0.006484767669 0.013628543737 0.032078501288 0.017569154776 0.016392603732 
0.0090729170977 0.0084696363054 0.010246282949 0.013028612302 0.0095371377587 0.0095603398982 0.011868529838 0.026455234917 0.026566997093 
0.020580159558 0.011838852493 0.010536584198 0.0077738207001 0.040883039548 0.040808184113 0.019013166758 0.01046091608 0.021559022023 
0.01830858338 0.0089617177929 0.028267372897 0.01887585847 0.0094401237761 0.0097547128452 0.0095969594036 0.0099536542165 0.0097928840853 
0.010747155511 0.010708513737 0.011272756688 0.010556042482 0.0099717418717 0.0079756654461 0.0075102809126 0.0068738587841 0.006103664119 
0.0049985926173 0.0040053021526 0.005302947256 0.0057166263817 0.0048234152231 0.0035108773321 0.0044149182038 0.0070868871123 0.011175987274 
0.0099741896305 0.0093851362262 0.010897019981 0.009696645209 0.0099234981564 0.0088446393981 0.0094079765103 0.0099403597653 0.0099785552516 
0.0083499934903 0.0079780104126 0.0071793233201 0.0063965989379 0.004556598879 0.0039127877892 0.0043725242758 0.0041023065977 0.004222697591 
0.0073444138191 0.0098278942703 0.0085152017179 0.0084096421777 0.007328382301 0.006898085156 0.011299790093 0.0099276532104 0.0051614278967 
0.0042238091507 0.0041645789675 0.0032756109382 0.0044889759006 0.0051628449692 0.0069363733736 0.0084449738071 0.0078537220031 0.012814142934 
0.014630408537 0.0090169124177 0.0087993438144 0.0078053278782 0.010390981169 0.010098845151 0.013130851632 0.014763123501 0.026443305467 
0.0089197268876 0.010949611818 0.0074450677175 0.017742425512 0.010621660682 0.0094278941008 0.0097156765785 0.032491802767 0.014633135568 
0.0070692693261 0.0069925485217 0.0089644645665 0.010476536008 0.023771834219 0.03867527064 0.012508029587 0.009213815376 0.0090428905012 
0.018680165917 0.011315167605 0.010966365667 0.01077001794 0.010632961209 0.0090364381638 0.0068430907573 0.0058449098528 0.022931727819 
0.01768701253 0.022588627362 0.010081353456 0.0072156616784 0.0073360201163 0.015462356417 0.018777210464 0.0095350273352 0.0089631993909 
0.018271009202 0.019745867517 0.0098042726693 0.018244718761 0.017848922686 0.027614349151 0.018922702047 0.018440375235 0.0085570683408 
0.01029976689 0.0096738484241 0.0089637429859 0.0087684728609 0.0089887975466 0.0088996523759 0.0086495569928 0.017663814642 0.034995471165 
0.017447621012 0.0086373771726 0.0087662849884 0.0089720192386 0.0084510923535 0.0076991853185 0.0088368912127 0.0056942510756 0.0041772942913 
0.0029470069047 0.0028894504913 0.0053645994056 0.0068206581617 0.0091152089806 0.017643302449 0.05019007289 0.021649706364 0.01296933262 
0.014661082034 0.0071169963413 0.012524970538 0.012445860842 0.0073457591098 0.020954149731 0.022779944359 0.011278846317 0.006460567939 
0.018261341065 0.012391677552 0.0059372177374 0.0064574928147 0.012124394309 0.0079385012576 0.0081934076202 0.0072523593343 0.0046999975818 
0.0037739860324 0.0039872376056 0.0041020071321 0.0061774425299 0.010784872051 0.0044329166554 0.0064793981856 0.0063739626481 0.0080096277422 
0.007923393668 0.0081713643202 0.0059815594605 0.0063964480578 0.004675963668 0.004832409862 0.0028359123089 0.0032921733823 0.003656522556 
0.0044297439475 0.0034051085635 0.0047028869804 0.0028510496785 0.0036774348893 0.0046724584538 0.0040948838759 0.0048695120135 0.0059570765905 
0.0056432439067 0.0049717832661 0.0037341853829 0.0042693715694 0.0027427503395 0.0026709888694 0.0035320297937 0.0040557870511 0.0054045865831 
0.00751847959 0.0030558659005 0.0047149173602 0.0030818744541 0.0058478873563 0.0072059759697 0.0086192519931 0.0093993142584 0.0094355324082 
0.0085066995541 0.018844382664 0.022788008264 0.023426748949 0.0078978792731 0.0089050931335 0.010399400673 0.019540662187 0.017131136054 
0.0090207411721 0.017256849908 0.0075046659566 0.018767294381 0.018252856508 0.047059399719 0.036978481331 0.010840907738 0.010712634403 
0.042354736484 0.0085351366092 0.0085774594331 0.0084541701484 0.0083328517389 0.0082786607033 0.0081306377015 0.0082513531538 0.0079747919738 
0.0079612181705 0.0079331616729 0.0078894581752 0.0079469986309 0.015901249108 0.02487348979 0.0080604766875 0.008027791948 0.0080006241149 
0.0081786217273 0.016005695986 0.015937047899 0.016273081158 0.0073547594415 0.0031915176682 0.011634375629 0.0093208445455 0.011852496123 
0.019076167408 0.0068396025892 0.015728769019 0.01585891309 0.0068190350263 0.015728246157 0.015708231194 0.015714975375 0.0095967313066 
0.017113474061 0.012990950952 0.018208399371 0.018733393687 0.0079098421457 0.0079058422294 0.0079877444042 0.007966038964 0.016952310448 
0.018529444113 0.0087768633966 0.010000482422 0.027702666869 0.031207497219 0.016718176309 0.0097513713828 0.010390996431 0.0089887008559 
0.0085800829508 0.0095823184627 0.0078180066607 0.0099437361356 0.0094693962022 0.0094991086039 0.011322379272 0.0097570419119 0.010292653444 
0.0093231960227 0.0095955709601 0.0089527005922 0.014308067076 0.0066330353277 0.0082911117951 0.0076359401793 0.0075361656473 0.006538789182 
0.0071337887414 0.005317216034 0.0071787977973 0.0066899689938 0.0069394998752 0.0069036488209 0.0061606846982 0.0052140494214 0.0055989567839 
0.0023553922552 0.00232875401 0.0025133346908 0.0028136783839 0.0049141610731 0.0053509405919 0.005727738812 0.0091019204525 0.012668856143 
0.012804011515 0.0097618312639 0.0043844621046 0.0053484940609 0.0023753759616 0.0025665374325 0.0033731289381 0.0038779006156 0.0030264871649 
0.0024066796921 0.0030562768025 0.0042124669541 0.0047197209615 0.0067204998349 0.0048631225277 0.0050114656266 0.0051278055076 0.0040654815261 
0.003421712689 0.0033511936954 0.0033367303533 0.0087723346128 0.0087070601914 0.0082076219678 0.0085464751817 0.0092214197152 0.011727291499 
0.011262646305 0.0075119562578 0.007466552327 0.0050836623382 0.004906334181 0.0071689242266 0.0091748278859 0.0050607044052 0.0046509052885 
0.0074140672438 0.0063396483697 0.0074889455264 0.0045939101913 0.0026853001317 0.0036369694051 0.0029377719057 0.0025887297769 0.0036667891545 
0.0043906731062 0.0033441792261 0.0040416370492 0.0034321508714 0.0037463113051 0.0042471728214 0.0060402725079 0.0032188010459 0.0033584088794 
0.0072739526597 0.008088384941 0.0051440843734 0.0082296590413 0.0063731912522 0.0038360560624 0.0044812708708 0.0050944587579 0.0037012370817 
0.0045268641614 0.0053426215354 0.0039404036868 0.0020627154065 0.0036763507007 0.0052932458266 0.0056770376605 0.0052111697386 0.005674098658 
0.0073545466744 0.0070297613594 0.0056093451839 0.0075729194295 0.0067815486865 0.0089604774306 0.0060357933259 0.0064911667569 0.0065464548861 
0.0064103856606 0.0084704924219 0.0076183976343 0.0082738420351 0.0068412712075 0.010343576424 0.011033150162 0.0087152780477 0.0092663684331 
0.0091992529492 0.007427171105 0.0075716668162 0.0084854746921 0.0091924543868 0.010746897139 0.01094341201 0.0097786876293 0.0097549775633 
0.010265992921 0.014201513682 0.0098990168777 0.019119897641 0.019367407121 0.017411237455 0.007899326914 0.010941698417 0.015820433436 
0.011946663438 0.0087139336912 0.0092936097098 0.01057451975 0.0096106968504 0.0092592008318 0.028697648336 0.029542071726 0.0094103700366 
0.0091291623679 0.023626583964 0.0080137562352 0.028766195484 0.029549386893 0.009910758217 0.0098931822571 0.016696688473 0.025021013463 
0.041362583194 0.015693596217 0.033298718194 0.040807325335 0.0160318009 0.009734709923 0.016430802224 0.04930361866 0.0078277026005 
0.007779007377 0.0080472007537 0.016185038338 0.034745140732 0.030195691612 0.013040507894 0.0062494729134 0.012709357288 0.017384170483 
0.0081986045481 0.0080597634461 0.0082127093269 0.0081938470161 0.0083048606701 0.0082825568456 0.0083071966626 0.0082609753283 0.0082787976476 
0.0082489246416 0.0082523136087 0.0082508450459 0.008236050113 0.0082371055354 0.0083026098987 0.0083098136264 0.0083825094661 0.019243471598 
0.009705960656 0.0073635793198 0.0072712965327 0.017295918168 0.0094891401094 0.010433000412 0.0089592008327 0.0082096653139 0.009039773868 
0.010310647245 0.00993101011 0.0086334567176 0.0080877777363 0.0081759339832 0.0093221931929 0.0092278356249 0.0092340074458 0.0099166721061 
0.023811831759 0.010604347934 0.0084258931438 0.0084044038875 0.016015257905 0.015437342739 0.033162160882 0.030880781198 0.010776260093 
0.0076713101819 0.0077847297509 0.0090532540373 0.0095636343142 0.0091454903732 0.019390501601 0.0077576747544 0.0070687771052 0.0082732534024 
0.0076666478037 0.0096160832418 0.0088233191858 0.0092184967789 0.0079614275957 0.007929719623 0.0079520029081 0.0079543726001 0.0079682094288 
0.008015849045 0.0079688314923 0.0079997541366 0.0079614203865 0.0079159675753 0.0071598894264 0.008031141952 0.0080661538639 0.0055983477107 
0.0060124235013 0.005511961444 0.0065074673724 0.0059028113612 0.0057911119549 0.0058095767456 0.0061775367006 0.0056910546286 0.0060808576597 
0.0081987853883 0.0056996407214 0.0039278980096 0.0031704895578 0.0028354095227 0.002346021951 0.0023435372952 0.0023759716941 0.005206464098 
0.0027014513129 0.0026190125752 0.0029602757325 0.0032230229981 0.0029931283896 0.0045166330187 0.0052489126066 0.0063743474163 0.0080708698704 
0.0080542457164 0.0082494101211 0.0077828723329 0.0058683437643 0.0069558595393 0.0060411491574 0.0052796515067 0.0060562413608 0.0081662972982 
0.014403132477 0.0090030690444 0.008028428042 0.0080258006514 0.007995922051 0.006776716749 0.0079480950701 0.0079497231346 0.006284312587 
0.0078923505056 0.0078949530407 0.0062677225998 0.0078844982077 0.0078860563412 0.0071430703667 0.007865295028 0.0078870236685 0.0078716496165 
0.007866779981 0.0078895664021 0.0078697796893 0.0079152170856 0.0079166179174 0.0079203243186 0.0079506969307 0.0080048559374 0.008075367452 
0.0080548248803 0.0067437803139 0.0066698301899 0.0069394605685 0.0084653242017 0.0090127168547 0.008167275532 0.01004287068 0.0095264260765 
0.010136133911 0.0091936472851 0.0098815347752 0.008656444626 0.010752364214 0.0086438841182 0.01081221513 0.0098933182354 0.0087284646304 
0.0090010539866 0.0084199222819 0.0082429389946 0.0081598871378 0.0081215372815 0.0082685522788 0.014807498747 0.016555426734 0.010011853139 
0.0082325019483 0.0085599118657 0.0081296321654 0.016850215438 0.016677532228 0.0097269368014 0.0082954858089 0.0084104943035 0.0083203347451 
0.0083071511804 0.0084158005327 0.0082857984374 0.0082890352334 0.0084160310667 0.0082499464555 0.0082821891764 0.0084217523437 0.0082719055702 
0.0090178608996 0.0076184452374 0.0077523147803 0.0090759230413 0.0097954564033 0.0083457909073 0.0083797227694 0.0082890082893 0.0083212076583 
0.0090504932213 0.016481513774 0.011498981604 0.0086266943772 0.0097986414822 0.010919838513 0.0095741365891 0.01624852733 0.015246792069 
0.0080233329704 0.0076777648755 0.0078556861186 0.0087369922089 0.006736058154 0.0061925031415 0.0063130885492 0.006801940315 0.0083067832426 
0.0063467557751 0.0047188610274 0.0040185703335 0.0051311728591 0.0047986336891 0.0029450367875 0.0022741316664 0.0020830326887 0.0022799755656 
0.003181773742 0.0051450964819 0.0066141996502 0.0044646131252 0.0031242205941 0.0074779392391 0.006617883662 0.00348314015 0.0027138290249 
0.0028330110812 0.0034449158264 0.002373743405 0.0023535246197 0.0033712815217 0.003333202845 0.0033474325846 0.0038402524507 0.0043101759566 
0.0045845189408 0.0046203002806 0.0087235218188 0.0078120349834 0.0070638744351 0.0067341731821 0.006618698033 0.0066887787913 0.0073574328852 
0.0081436659385 0.0074628770476 0.0083023311287 0.0065638877325 0.0075787091238 0.0081801941442 0.008232726888 0.0082682325293 0.0081417572374 
0.0070734616214 0.0068051630138 0.0089769249064 0.0083122960142 0.0080031993577 0.0080473870633 0.0085737489046 0.0092275659896 0.019811967575 
0.016880870031 0.016754290153 0.020123469258 0.0094935288522 0.0072760584732 0.0072913633222 0.007811774736 0.0076221911411 0.0090254571533 
0.0091510386365 0.0098852747548 0.016420116614 0.029716139546 0.016838313793 0.0096827821512 0.010879331061 0.018961042174 0.018203828059 
0.016536090318 0.0085524364853 0.0085520984845 0.017264426773 0.025691249549 0.016651274244 0.017157454841 0.017159935823 0.0085930584009 
0.0086519474968 0.0087110790568 0.025876590066 0.0086186086258 0.0086302454802 0.01712480246 0.017089307443 0.0084908056441 0.016998592992 
0.0085028303823 0.016922725729 0.016691283093 0.0083142015713 0.016603924082 0.0082668621673 0.0082563162918 0.016478979938 0.0082630646625 
0.016606540609 0.025266057796 0.016850075908 0.016850692246 0.016856280879 0.008341449282 0.016747118419 0.0084283015346 0.0084821477921 
0.0085448296738 0.0091155790101 0.017525358501 0.034090590819 0.016668178983 0.017639563078 0.016639665098 0.017720864566 0.032238487599 
0.016872925962 0.017163721759 0.0096362567346 0.010961664082 0.010075790304 0.0082168570534 0.028034478838 0.024583841552 0.038360136991 
0.015068247145 0.0094817407284 0.020151341903 0.021534226882 0.010904332188 0.011673313523 0.0099888047204 0.0088218271085 0.0089943441789 
0.0097728010364 0.018443859514 0.018562702924 0.0093422668053 0.036170178532 0.0089914121853 0.03419831367 0.035368404458 0.017538091031 
0.01817572549 0.0086541725081 0.0084500910121 0.017170194877 0.017386472797 0.0083222905046 0.033558710641 0.032735029729 0.024929898649 
0.027972870128 0.0079884815918 0.0057527453163 0.016799848005 0.034409153653 0.032558709103 0.057005795282 0.03400134284 0.023441634725 
0.021212916386 0.031486689087 0.019404094973 0.031994268497 0.030376231444 0.009633649228 0.047902373944 0.03493657182 0.019668758061 
0.015067596336 0.0080002576823 0.016266860483 0.0081749341695 0.017903666223 0.010204978108 0.0086379823468 0.0084611792099 0.018514881604 
0.01762829943 0.0083434518642 0.0092808038879 0.010115083963 0.0097436844738 0.016879185807 0.0091949494796 0.0099522756296 0.0094733392482 
0.0068556198715 0.0089082427219 0.0082742353464 0.0081961394396 0.0071365776622 0.011841390109 0.03227454941 0.008975866913 0.018731016627 
0.0164854187 0.016428564794 0.015421499955 0.01810751427 0.0098313613498 0.02149235025 0.035380424272 0.016956438303 0.019287825024 
0.014072452232 0.015179782636 0.0079331503401 0.0085783386107 0.0171397512 0.014617390265 0.0090500090694 0.01995285542 0.020488902699 
0.035761135145 0.017959001412 0.018785153587 0.0082838788578 0.00816554818 0.017857382738 0.012726373089 0.018500078831 0.014624943629 
0.044665792821 0.020168047081 0.048323149724 0.017616382782 0.017114823897 0.018601570741 0.010807351787 0.0076836458699 0.0069412850617 
0.014060901409 0.011345190263 0.012241766154 0.006061504319 0.016415790301 0.041652229434 0.015819270479 0.017612855219 0.0080732934998 
0.0069893010793 0.0086734794188 0.018781157228 0.044439559965 0.028654476249 0.013946808152 0.012985494745 0.011379200881 0.0098721856489 
0.020036377828 0.01734247107 0.0082304032183 0.009129088414 0.01216192504 0.0096157110949 0.01887060196 0.023996802997 0.018797974261 
0.026993804056 0.025121434499 0.017448640862 0.017462119021 0.0090298412061 0.0092401569313 0.018125869981 0.035664122674 0.017846189697 
0.00890196531 0.0086117020052 0.0086845410365 0.0086358317373 0.0080004885734 0.0076361968274 0.0080931951758 0.0094417078832 0.017432454106 
0.025158314724 0.016968576317 0.008507462468 0.0084369185038 0.0078915085048 0.0081672514315 0.0091388014447 0.0081521603263 0.0072103149974 
0.0072177968373 0.008300398554 0.015945160139 0.015073887597 0.016763689788 0.0083787319247 0.0083673993032 0.0079142907028 0.02405024189 
0.0082795969314 0.016688733474 0.016959234604 0.0335096815 0.051361858208 0.025963933019 0.025191675518 0.0083799165043 0.0083862683693 
0.01643526452 0.01668932074 0.024681068381 0.016702447441 0.0083470044872 0.0072847397773 0.0075314970237 0.017485123692 0.017753520995 
0.015524568556 0.01744679126 0.018757946132 0.018068009078 0.018266322039 0.0091325418146 0.0083086232066 0.0087088399202 0.008194484125 
0.0081968717949 0.0085270915493 0.008524194066 0.016529464087 0.016314017214 0.0076013997821 0.0075881008927 0.022979309107 0.024447250017 
0.016638460398 0.0087309528406 0.0080693884845 0.0083331661885 0.032922853891 0.008496451326 0.0088567266079 0.0087961355996 0.017594083871 
0.017246584295 0.016524883334 0.0095704202624 0.011682606075 0.011448155994 0.0090808326343 0.014529564472 0.0081502529162 0.022048196488 
0.011010266603 0.0087974172312 0.0087609031855 0.014371977757 0.014209654737 0.0088148975676 0.0086993327435 0.008660515505 0.015870575922 
0.015341201307 0.0073397983967 0.0084868880933 0.0070693602473 0.0074352129915 0.0070810589266 0.0066731833099 0.0082680369272 0.0085318641927 
0.007672649135 0.0086178285547 0.0075388546971 0.010619021716 0.0086803766212 0.0085262162256 0.0092573813876 0.0088245965382 0.0088613037562 
0.0096546266602 0.0088971388065 0.0079441648328 0.0079263955032 0.0079623575678 0.0079169525969 0.0079284143957 0.0079498781205 0.010406405249 
0.010363638737 0.018765890633 0.0085527994946 0.016632829737 0.033209409764 0.015412182118 0.0068848363679 0.0086572104257 0.007641209931 
0.0082534895444 0.019356077175 0.015932347766 0.0078938016666 0.0083091661056 0.0075962851651 0.013030133145 0.018473088056 0.015891860893 
0.047571873029 0.023722635216 0.02228072446 0.0074572043262 0.023016180379 0.045991383216 0.030623485168 0.0082791942993 0.0084483189084 
0.0088307037431 0.007840580557 0.0078589255609 0.0096374922006 0.00901154285 0.0090326393458 0.0087074090933 0.0075162533611 0.016964686279 
0.0079421067227 0.0088496102845 0.0084557568061 0.0083184805384 0.0080014999552 0.0075800677896 0.0080440122242 0.0047844286559 0.005459685744 