# vtk DataFile Version 4.2
vtk output
ASCII
DATASET POLYDATA
POINTS 17999 float
24.2838 -12.1657 1.61549 24.2819 -12.0409 1.49022 24.3046 -12.0408 1.61567 
24.3102 -11.7907 1.49035 24.3214 -11.9157 1.61571 24.2978 -11.9157 1.49031 
24.3518 -12.1661 1.86528 24.3136 -12.1656 1.74085 24.2893 -12.2904 1.74077 
24.3257 -12.2905 1.86605 24.2999 -12.4155 1.86607 24.3432 -12.416 1.9895 
24.3127 -12.5408 1.99016 24.2735 -12.5409 1.86527 24.2659 -12.416 1.74024 
24.2375 -12.5408 1.74028 24.235 -12.4161 1.6151 24.2603 -12.2906 1.61529 
23.9993 -13.2909 1.61506 24.0108 -13.1657 1.49017 24.0737 -13.0405 1.61547 
23.9323 -13.4159 1.49037 23.9587 -13.4163 1.61523 23.9134 -13.5406 1.61526 
23.8703 -13.6575 1.61524 23.8151 -13.6824 1.38197 23.8894 -13.5411 1.49009 
23.7448 -14.0282 1.74027 23.7127 -14.034 1.60949 23.7386 -13.9158 1.49034 
23.6843 -14.0412 1.49035 23.5927 -14.2897 1.61841 23.5301 -14.4108 1.61226 
23.5634 -14.2903 1.49044 23.4953 -14.5411 1.74021 23.4327 -14.5407 1.49045 
23.3959 -14.6609 1.61517 23.3138 -14.7922 1.61529 23.1877 -14.9163 1.49045 
23.334 -14.6671 1.36536 24.1856 -10.4037 1.60343 24.2187 -10.5524 1.6271 
24.215 -10.6658 1.49029 23.9915 -9.76165 1.61473 23.9963 -9.81314 1.4854 
23.9415 -9.68814 1.49452 24.2951 -11.0239 1.59858 24.2926 -11.1657 1.4903 
24.2785 -11.0407 1.4903 23.8945 -13.6658 1.74025 23.9403 -13.5401 1.74059 
23.9247 -13.6655 1.86536 23.86 -13.917 1.98971 23.801 -13.9161 1.76785 
23.7693 -14.0407 1.86536 23.7487 -14.1561 1.99019 23.8167 -14.1654 2.23995 
23.7628 -14.2915 2.23979 23.7983 -14.2921 2.36696 23.7401 -14.4169 2.36503 
23.7717 -14.3961 2.46566 23.8329 -14.2611 2.46334 23.8004 -14.3506 2.55611 
23.8482 -14.2415 2.57044 23.8173 -14.3117 2.61902 23.8388 -14.223 2.65154 
23.7961 -14.2619 2.70214 23.77 -14.3513 2.67519 23.7499 -14.327 2.74157 
23.7389 -14.4137 2.70279 23.6902 -14.4028 2.77046 23.6982 -14.4939 2.74164 
23.7307 -14.4739 2.65886 23.6901 -14.5517 2.70832 23.7083 -14.5659 2.61263 
23.7419 -14.4841 2.5695 23.7658 -14.4125 2.63474 23.6652 -14.6574 2.60201 
23.6579 -14.6332 2.47528 23.6249 -14.7239 2.54335 23.6141 -14.6722 2.37691 
23.6414 -14.5408 2.23988 23.7043 -14.4165 2.23977 23.6631 -14.4324 2.13185 
23.53 -14.5407 1.86523 23.6059 -14.4001 1.87937 23.6802 -14.2907 1.96234 
23.6271 -14.277 1.74026 23.5596 -14.4158 1.74035 23.4653 -14.6602 1.86023 
23.4263 -14.6662 1.74037 23.3492 -14.8533 1.86426 24.3155 -11.6659 1.4705 
24.3424 -11.6658 1.61516 24.3338 -11.7999 1.61362 22.6929 -15.5119 1.60039 
22.4613 -15.6134 1.35974 22.6112 -15.4524 1.25503 22.8794 -15.2838 1.49055 
22.9795 -15.1761 1.50306 22.9348 -15.263 1.59147 23.2765 -14.8992 1.74165 
23.133 -15.0369 1.61863 23.0892 -15.041 1.49223 15.0789 -15.2553 1.51789 
15.2026 -15.2844 1.14273 15.202 -15.3157 1.58707 15.5784 -15.4582 1.61504 
15.5784 -15.4464 1.36504 15.8119 -15.5269 1.50682 14.5774 -15.0216 1.51782 
14.5776 -15.0153 1.39283 14.7021 -15.0762 1.33716 14.1167 -14.7246 1.60162 
14.3283 -14.8602 1.36502 14.3159 -14.8571 1.50251 14.1226 -14.7145 1.34811 
13.9706 -14.6024 1.51725 14.0197 -14.6355 1.33712 14.0183 -14.6446 1.58769 
13.8437 -14.477 1.14298 13.8914 -14.5292 1.46251 13.7666 -14.4042 1.33721 
13.9794 -14.6009 1.26794 13.7666 -14.4053 1.46251 13.7132 -14.3498 1.39256 
13.7168 -14.3491 1.64319 13.5584 -14.2049 1.5186 13.5669 -14.216 1.39735 
13.6412 -14.2788 1.58727 22.5958 -8.21695 1.49045 22.496 -8.16365 1.33407 
22.5936 -8.17335 1.75294 24.0155 -9.77914 1.74667 24.0441 -9.90355 1.60345 
24.0697 -9.91484 1.74039 24.0323 -9.77325 1.86547 23.9456 -9.53135 1.99767 
23.9119 -9.52465 1.86579 23.9619 -9.66275 1.73301 23.9006 -9.53854 1.74036 
23.7967 -9.28975 1.99004 23.8805 -9.41304 1.98985 23.7971 -9.16254 2.23963 
23.8755 -9.29045 2.24052 23.8434 -9.16434 2.36556 23.9877 -9.41434 2.36482 
23.8921 -9.16315 2.48888 23.8071 -9.03645 2.48995 23.7556 -9.03474 2.36088 
23.7064 -8.92265 2.48131 23.7633 -8.91805 2.61915 23.6681 -8.82624 2.59914 
23.7882 -8.88995 2.74988 23.8349 -8.97865 2.67897 23.8801 -8.96255 2.80921 
23.9118 -9.04565 2.73404 23.9517 -9.03785 2.86459 23.8978 -8.90545 2.97615 
23.9669 -8.98415 3.01717 24.063 -9.16505 2.99041 24.1035 -9.16335 3.11444 
24.1306 -9.28965 2.98981 24.2308 -9.41425 3.11451 24.2093 -9.28844 3.23965 
24.2665 -9.41475 3.23979 24.2474 -9.28785 3.36454 24.3007 -9.41624 3.36543 
24.284 -9.28944 3.49087 24.2182 -9.16275 3.49088 24.2659 -9.16095 3.61313 
24.1785 -9.03775 3.61352 24.0739 -8.97755 3.43248 24.1714 -9.15715 3.36005 
24.0099 -8.91505 3.35816 24.0262 -8.88414 3.48835 24.1127 -8.97025 3.55924 
24.1011 -8.82664 3.80214 24.1454 -8.91085 3.72472 24.1855 -8.90535 3.85867 
24.0221 -8.66195 3.98803 24.2092 -8.91335 3.98273 24.2468 -8.99075 3.90222 
24.2675 -9.02505 4.00785 24.2969 -9.08525 3.94461 24.2768 -9.06504 3.83265 
24.3226 -9.15155 3.86965 24.2997 -9.15425 3.74388 24.2521 -9.07635 3.71725 
24.2149 -8.98355 3.78503 24.3248 -9.27534 3.6299 24.3451 -9.23384 3.78901 
24.3654 -9.29784 3.75212 24.3751 -9.28984 3.86927 24.3921 -9.35275 3.80812 
24.3681 -9.35805 3.66472 24.4059 -9.40234 3.75265 24.4218 -9.41764 3.85599 
24.4345 -9.47195 3.74201 24.3981 -9.45475 3.62396 24.4364 -9.51894 3.65978 
24.4666 -9.55265 3.75669 24.4492 -9.49535 3.86884 24.4728 -9.56955 3.84242 
24.4442 -9.58205 3.92986 24.422 -9.54065 3.96785 24.4003 -9.61805 3.99832 
24.4533 -9.67725 3.94361 24.3936 -9.75935 3.99123 24.4419 -9.80685 3.94712 
24.3994 -9.88675 3.96688 24.4668 -9.93335 3.91096 24.4198 -10.025 3.92978 
24.5086 -10.0297 3.85651 24.5314 -9.97095 3.82371 24.5182 -9.90514 3.85857 
24.5491 -9.89365 3.78824 24.599 -10.085 3.76142 24.5655 -9.86425 3.72833 
24.6212 -10.0893 3.68262 24.597 -9.98764 3.66022 24.5664 -9.86565 3.67614 
24.527 -9.74525 3.70484 24.5397 -9.80775 3.76641 24.5106 -9.71605 3.79024 
24.5162 -9.77774 3.84405 24.496 -9.83735 3.88928 24.484 -9.72675 3.90438 
24.4976 -9.66864 3.85452 24.4723 -9.62685 3.89811 24.4956 -9.63515 3.7321 
24.4684 -9.62194 3.60555 24.408 -9.54824 3.50418 24.4562 -9.66695 3.49376 
24.5035 -9.71764 3.59727 24.5728 -9.90044 3.60456 24.5516 -9.91465 3.49309 
24.5138 -9.91605 3.36539 24.356 -9.54034 3.36562 24.4788 -9.91555 3.24009 
24.3172 -9.54145 3.24064 24.3396 -9.41235 3.5024 24.3585 -9.79015 2.99005 
24.2832 -9.54135 3.1154 24.3258 -9.78994 2.86466 24.2515 -9.53955 2.98919 
24.1537 -9.41534 2.86522 24.2136 -9.54015 2.86465 24.173 -9.54155 2.74065 
24.1154 -9.41335 2.73918 24.0909 -9.28984 2.86438 24.0473 -9.29174 2.74078 
24.0241 -9.16465 2.86456 23.9811 -9.16465 2.73951 24.0066 -9.28965 2.61459 
23.8774 -9.08374 2.59209 23.9638 -9.28955 2.48919 24.0941 -9.53975 2.48967 
24.1148 -9.66484 2.36497 24.0119 -9.52295 2.25651 24.1234 -9.76265 2.23999 
24.2307 -9.91415 2.36464 24.1662 -9.94334 2.11536 24.1204 -9.91505 1.99068 
24.0547 -9.69384 2.11554 24.0935 -9.91444 1.86521 24.1386 -10.04 1.86538 
24.098 -10.04 1.64286 24.1777 -10.1652 1.86552 24.1675 -10.0401 1.99094 
24.2153 -10.1768 2.0023 24.2118 -10.2902 1.86531 24.2831 -10.4326 2.00734 
24.3046 -10.3884 2.11628 24.2556 -10.1817 2.1314 24.3122 -10.2792 2.22848 
24.3191 -10.1661 2.36601 24.4067 -10.2906 2.48978 24.3633 -10.1652 2.48962 
24.4054 -10.1652 2.6146 24.4492 -10.2905 2.61468 24.4442 -10.1647 2.73957 
24.3955 -10.0402 2.73985 24.4293 -10.0404 2.86523 24.3771 -9.91584 2.86515 
24.41 -9.91624 2.99035 24.4645 -10.0397 2.98981 24.4798 -10.1646 2.86472 
24.5136 -10.1651 2.98988 24.5309 -10.04 3.24031 24.5778 -10.1653 3.24045 
24.5665 -10.0399 3.36548 24.6141 -10.1647 3.36659 24.6273 -10.3023 3.2523 
24.6652 -10.2908 3.40083 24.6485 -10.183 3.46506 24.6041 -10.0587 3.46354 
24.6269 -10.058 3.61771 24.5999 -9.99184 3.57001 24.674 -10.2145 3.57186 
24.687 -10.2784 3.50293 24.701 -10.2904 3.61808 24.7068 -10.3533 3.51197 
24.6931 -10.3566 3.66317 24.7244 -10.421 3.60123 24.7053 -10.437 3.67986 
24.7249 -10.4937 3.64277 24.7407 -10.5233 3.49239 24.7259 -10.4432 3.50049 
24.7185 -10.4845 3.4021 24.6838 -10.3768 3.37408 24.6734 -10.4363 3.26935 
24.6069 -10.4147 3.01717 24.5587 -10.29 2.98966 24.5725 -10.4268 2.87662 
24.524 -10.2903 2.86495 24.5299 -10.4151 2.73978 24.4886 -10.2901 2.73952 
24.4924 -10.4148 2.61432 24.4499 -10.415 2.48948 24.4892 -10.5397 2.48912 
24.5305 -10.5399 2.61438 24.5214 -10.6652 2.48941 24.4765 -10.6649 2.3639 
24.4428 -10.5401 2.36447 24.3764 -10.6653 2.1153 24.3388 -10.5287 2.10384 
24.3305 -10.6656 1.99074 24.295 -10.5409 1.96295 24.2861 -10.6382 1.866 
24.2451 -10.5574 1.75703 24.1805 -10.2783 1.72832 24.3077 -10.9158 1.74051 
24.3178 -10.7791 1.87789 24.3535 -11.0404 1.83747 24.2819 -10.9156 1.61523 
24.3461 -11.1774 1.7524 22.8194 -8.37875 1.60792 22.8297 -8.40565 1.49032 
23.1186 -8.60685 1.77712 23.0623 -8.63174 1.35093 23.8727 -9.51805 1.62298 
23.8536 -9.55585 1.36588 23.7999 -9.40475 1.62149 23.9338 -9.63705 1.61482 
22.2099 -15.8788 1.61228 22.2095 -15.8306 1.48925 22.3284 -15.8028 1.61481 
22.3312 -15.7481 1.48794 24.3939 -11.8997 1.88478 24.4023 -11.7663 1.88064 
24.4342 -11.7903 1.99088 24.4355 -11.9219 2.02231 24.4825 -11.823 2.12862 
24.486 -11.6892 2.12257 24.4355 -11.659 1.98302 24.5275 -11.5422 2.24255 
24.4329 -11.3878 1.99612 24.4201 -11.2739 1.97371 24.3875 -11.2906 1.86513 
24.369 -11.4573 1.76818 24.3218 -11.2629 1.61562 24.3394 -11.5482 1.60935 
24.3932 -11.624 1.83742 21.0789 -16.2523 1.61526 21.0675 -16.1938 1.48103 
21.2036 -16.2066 1.49061 21.2032 -16.2668 1.61544 21.3283 -16.2157 1.48835 
21.3279 -16.2758 1.61418 21.4653 -16.2145 1.50004 21.6023 -16.187 1.50892 
21.5635 -16.2327 1.59785 21.7365 -16.1656 1.61678 21.7084 -16.1424 1.48499 
21.8431 -16.1027 1.60868 24.5594 -11.2812 2.35408 24.5734 -11.5127 2.36571 
24.5772 -11.6536 2.37594 24.6156 -11.5672 2.491 24.6151 -11.4451 2.49501 
24.6092 -11.3163 2.49225 24.643 -11.4153 2.61407 24.6378 -11.2901 2.61399 
24.6634 -11.4155 2.73989 24.6304 -11.1651 2.61404 24.6797 -11.1645 2.8584 
24.6846 -11.5406 2.86491 24.7043 -11.5441 2.99452 24.6987 -11.6516 2.97702 
24.6824 -11.6675 2.86679 24.6659 -11.5406 2.73976 24.6641 -11.6656 2.73975 
[...]
CELL_DATA 35994
FIELD FieldData 1
Area 1 35994 double
0.0080678066291 0.008013236523 0.016256180583 0.0082971168381 0.0081506795379 0.0081823149027 0.0082818628292 0.0083126579794 0.0083293561531 
0.0083802036659 0.0083688407104 0.0083363429371 0.0083075503867 0.0082367984835 0.0082397305207 0.008218434378 0.016650286131 0.008424347396 
0.016437049953 0.0090266582356 0.01721239759 0.0088556370842 0.018719155314 0.017630139574 0.029617356436 0.008296015624 0.011920648925 
0.0086738440109 0.0069072769483 0.0079484268987 0.0085475791306 0.0085781686506 0.017252511666 0.030830043563 0.015628209747 0.016901495345 
0.034051032482 0.017714290453 0.0090045483909 0.0090210081206 0.0070304914482 0.007324870542 0.006787088345 0.0062167758605 0.0034427806837 
0.0035060016333 0.0034599769269 0.003700495683 0.0031220170169 0.0027157746995 0.0037215390313 0.0036696667913 0.0032407892317 0.0029898184538 
0.0044526360613 0.0041225758734 0.0032473668148 0.0052815540483 0.0026596892096 0.011802602598 0.0055005781002 0.0067103821841 0.014667294502 
0.019339952415 0.0090074190857 0.0077939933362 0.023456415957 0.020857469299 0.017242786896 0.017845624176 0.027337058055 0.017624612646 
0.018359877074 0.017705823684 0.0096084382473 0.0089173486761 0.0092412306974 0.0090657813013 0.0087009533948 0.0088494125786 0.0091825229485 
0.013556397253 0.019873325087 0.0098836919149 0.0405091288 0.0073498319483 0.018341035239 0.021109306928 0.010385583532 0.030084473995 
0.030641705694 0.013631840966 0.0087439475068 0.015860382264 0.031976536363 0.007812451508 0.023796251007 0.006824677498 0.011018093343 
0.0095833232718 0.0072021281238 0.0047978967788 0.016998958785 0.010198072059 0.010168219015 0.008778534675 0.015488089693 0.01971846064 
0.0095385274642 0.0087337642196 0.016114286525 0.0096343914656 0.019348263207 0.019381726824 0.0098701506272 0.018706583245 0.018848647817 
0.0099307026699 0.010551599656 0.010065474471 0.010893233098 0.0091943837171 0.0090168362019 0.0064527167542 0.0073729020343 0.0064676850842 
0.0064981029318 0.0099649253531 0.0090074776022 0.015608775711 0.013477338895 0.0091662276034 0.01813908555 0.018392645334 0.0089675990782 
0.0089888394538 0.0089896510654 0.0090734298986 0.0093003775938 0.0092574199547 0.0097204839733 0.018808803047 0.014945666921 0.011065998615 
0.006491903365 0.0073132495154 0.019836002066 0.0073106511791 0.0072907433681 0.016112130147 0.019623383754 0.0061344888508 0.0061539792747 
0.0048042247055 0.0054319456507 0.004993669831 0.0061055447565 0.0053801503898 0.0059550940035 0.0080180960277 0.0097859090682 0.0060100785387 
0.0086027453974 0.0081155306574 0.0048793344108 0.003871830964 0.0036926305847 0.0043311070004 0.0038426443661 0.0032158009613 0.0040101173011 
0.0047141998642 0.0039263231291 0.0039573917703 0.0053137629386 0.0035743612137 0.0036753057733 0.0031518839569 0.0024751203239 0.0038098358541 
0.0053883157771 0.0044993191127 0.0037182592796 0.0045920208851 0.0051947696518 0.0054646420208 0.0039427786819 0.0029553725851 0.0027433578199 
0.0057619050123 0.00666712652 0.0092432207583 0.0049873811329 0.0032701119992 0.0032827334016 0.0031392278889 0.0037328286361 0.0033745813836 
0.0053731251819 0.0028009285587 0.0033020045729 0.0040877079188 0.0033084383929 0.0025453712624 0.0024756838958 0.0026158893891 0.0033120392978 
0.004073040589 0.0057643076658 0.0044678454697 0.0076349800887 0.0075042650786 0.0081522491943 0.0071998603651 0.0057084572312 0.01021175298 
0.015155737002 0.017605872424 0.027581845325 0.026355153923 0.026504464617 0.0088291418452 0.0096375583082 0.011008103809 0.0095293279996 
0.0077034562177 0.0085593307398 0.0097951983635 0.052472205278 0.017543184225 0.017495787503 0.017685758147 0.0088888565477 0.017894048727 
0.008948716946 0.0089669191352 0.0091613484032 0.0091381837027 0.0091398873407 0.0090485500182 0.0092087690547 0.0093525282583 0.0095253289403 
0.0093708379985 0.017409186754 0.010379329531 0.015622939047 0.0077523822299 0.018473258445 0.018304562148 0.018320438455 0.015704919269 
0.016369416545 0.01776890273 0.023615891492 0.014585137398 0.020607998495 0.025169918679 0.0098369982583 0.0085360542286 0.00846299203 
0.015060759638 0.01481200218 0.0084288824515 0.01003733354 0.009119715441 0.018893173994 0.015120447702 0.01440342646 0.01165422371 
0.013184711183 0.017387825554 0.0086608734849 0.0086996902271 0.0087054297499 0.0086450364884 0.0087030823441 0.0086431758657 0.0087247602428 
0.0086992480539 0.0087722239133 0.0086941793443 0.0086430457587 0.0086840929783 0.017367910202 0.017235584092 0.0086640241912 0.0087081262187 
0.00872175425 0.0094571041729 0.010417888009 0.0064314769856 0.0067045636694 0.01027057891 0.0054008369525 0.0033441957034 0.004217169056 
0.0073632263668 0.0082836218255 0.0096741317174 0.0048038474216 0.0042897003166 0.0044107386668 0.0049583045563 0.0053610750407 0.0032135153067 
0.0026528371554 0.0061180958504 0.0040151646902 0.0038952558827 0.0061926996777 0.00687269237 0.0081423480578 0.017958030371 0.017537823722 
0.0097053205873 0.0092772985507 0.0085621982161 0.01011162004 0.0085459305371 0.0085822097918 0.0085765730827 0.0086314914656 0.0085836473347 
0.0085851969528 0.0085143637822 0.0086014551561 0.0085670441446 0.017248897194 0.019508176393 0.0093063978008 0.0096158350159 0.0079635403784 
0.0079030970463 0.0096335072334 0.028182812398 0.0183165703 0.020238684709 0.024151011438 0.024659660546 0.015867255977 0.0081213135498 
0.021336894124 0.0098710602121 0.01780152521 0.071443155443 0.017505984764 0.0083167134088 0.0091531207253 0.0098464510265 0.016218526955 
0.018464323602 0.0076518827936 0.0091329803707 0.0091394153979 0.0096998969098 0.009643626788 0.01282689309 0.036682076487 0.013074673631 
0.0066740559211 0.0074282102369 0.015577111289 0.020342388613 0.022977437222 0.01679432993 0.013540345818 0.0099004699746 0.0086657452778 
0.0095652715005 0.0069279706446 0.0080127609091 0.017145626605 0.010018892922 0.0084765388184 0.014313221252 0.024323998179 0.053314074762 
0.015457875716 0.0094201667634 0.0090161688563 0.0081712080638 0.0089070800904 0.0079409383525 0.0078514162172 0.007985662522 0.0079666852863 
0.03126131127 0.023394520572 0.024643717436 0.0070813766657 0.0070834312897 0.0080302281474 0.0080233786983 0.0079609172693 0.0079677628441 
0.0079654853984 0.007913917134 0.0063533349469 0.0066792348862 0.0079806182667 0.0079947017408 0.0063076298235 0.0068479526731 0.0064489011068 
0.0058384976649 0.0058500439399 0.0055699381158 0.0066419123901 0.0042660945151 0.0047250125749 0.0032209583678 0.002660448337 0.0041623237967 
0.0046617884965 0.0055214598798 0.0054756049464 0.0047701752366 0.0054887413243 0.0072955437137 0.0082786883653 0.0081331549032 0.0081032385055 
0.0063879203983 0.0081592142182 0.0080207903443 0.0079588562381 0.008219890638 0.0089795510348 0.0080010824248 0.018003350284 0.016688558938 
0.013625742305 0.0063110279266 0.0072135609088 0.016448422595 0.0165224858 0.01645406047 0.0081948610307 0.018082026651 0.012547013955 
0.013589207331 0.0088542240485 0.0058274309615 0.0048320542008 0.0030996236262 0.0054646446151 0.0044842378552 0.0061103997597 0.0067466556322 
0.0062912413895 0.011693916919 0.0079109901644 0.0058414250252 0.0052082606306 0.011517005828 0.014742494159 0.016832244065 0.016848382504 
0.016851481107 0.016900477125 0.0083925180496 0.0084062838709 0.0083440362919 0.0083500668793 0.0083154027026 0.0090845498347 0.0083561477111 
0.0083517588799 0.0073400508235 0.0068956213483 0.0083276108549 0.0083423118289 0.0083864745036 0.008311010613 0.008379346085 0.008317570334 
0.0083376893614 0.0083003446791 0.0093302990672 0.0083156712649 0.0083282482803 0.0083183102426 0.0083653609305 0.008395397507 0.0078732728724 
0.0064432299982 0.0083624828068 0.0084237343933 0.0083961829325 0.0084449324557 0.0083675225707 0.0084945931475 0.016928969552 0.016877174275 
0.0084917646351 0.0084606876507 0.0088844714188 0.0073657340799 0.013761007928 0.014324220933 0.018361874387 0.017816137252 0.034189073217 
0.034432111176 0.01124484262 0.0095180935602 0.0053230721417 0.018040240177 0.01261928402 0.0055475113983 0.0056982621143 0.0034941467683 
0.0040470669363 0.0031088875643 0.0035777321746 0.0044695730578 0.0063140148604 0.0037270371581 0.0066337127153 0.0065764579435 0.0073681660632 
0.0092648060864 0.0088544343956 0.0088169609119 0.0067269695232 0.0069448118259 0.016596732963 0.026094906244 0.025760048086 0.02583869182 
0.025853474001 0.042194484037 0.016907004506 0.033513811541 0.0068753747497 0.0073430334559 0.017167006203 0.026148869208 0.0097403949924 
0.016174200253 0.014615147339 0.016401843612 0.0068081424909 0.0046352781932 0.0034518073207 0.003551505366 0.0036569624341 0.0040121511609 
0.0031950863077 0.0035143153778 0.0061570961055 0.01029256248 0.0042729869169 0.003850543197 0.00390921347 0.0095987696872 0.020054991759 
0.0095150532106 0.010260819935 0.0089773262663 0.0030801180252 0.0035792876873 0.0029029301931 0.0019587713632 0.006896350702 0.0056839342547 
0.005680522763 0.007024509303 0.0080573128662 0.0073194204991 0.0054331469304 0.0039902970662 0.0032137393271 0.0021203971263 0.0017844489341 
0.0021673772748 0.0032446347337 0.0033065526689 0.0035364097596 0.0034337914298 0.0035548115792 0.0071996787588 0.0072888427562 0.0034606155645 
0.0035084041417 0.0042091812649 0.012170325382 0.0053690696919 0.0099815200814 0.0066840557968 0.0058423177068 0.0080840034538 0.0066881965468 
0.0060230987087 0.0066943540666 0.0072985908073 0.0093289736267 0.009898245936 0.0094996731282 0.0090170268569 0.010257650233 0.010296860355 
0.0091319065623 0.010263197727 0.011696961511 0.011364997681 0.0084780398107 0.0068583485462 0.011578478152 0.0072749592526 0.00670901793 
0.0069279981104 0.006944667371 0.0097567278809 0.005753126394 0.0062918013232 0.0098784159353 0.010597177941 0.0048422514237 0.0084697004086 
0.0059874423112 0.0057966076843 0.0063550356032 0.0064212249654 0.0031595183229 0.003061899287 0.0032379189381 0.002920366193 0.0028160494164 
0.0026920788624 0.0047504870413 0.006060736722 0.0066437035266 0.0048629288923 0.005925235733 0.0046070029079 0.0044661361583 0.0073341545613 
0.01078172288 0.0068636772178 0.0063738809597 0.0081982364183 0.0090535419811 0.010066486716 0.010239937854 0.010364087033 0.010439401239 
0.0097940942545 0.009858527251 0.0099903981198 0.009777840387 0.0098663239534 0.010298423411 0.010421904763 0.0097087006001 0.019106888209 
0.019258684235 0.0085208152133 0.0064835924505 0.018988550841 0.013277691122 0.0098344288572 0.0078707224995 0.0078808264588 0.039405583482 
0.023700767928 0.048587946165 0.0078320157061 0.01764838214 0.012796345363 0.0089557792949 0.02274897097 0.0099656728671 0.01811084799 
0.009351349545 0.010499865796 0.025460588431 0.025340637388 0.021692437286 0.026139724389 0.017925730404 0.019479845354 0.026219579341 
0.014832783202 0.016703261172 0.030763181772 0.028510847132 0.044067371116 0.026634776527 0.0077150020603 0.0072255342656 0.0072059783764 
0.0090941754066 0.018632711345 0.016692185849 0.016728421107 0.0076830076054 0.007867361755 0.015350341055 0.018213369458 0.01522858826 
0.0065408285677 0.01563529167 0.037391284853 0.023435110051 0.021843513973 0.017007642165 0.024639762346 0.0094630257622 0.034382823151 
0.016593161892 0.0077122812001 0.0067974710395 0.0096268383084 0.0063121375029 0.017622282496 0.016317295236 0.012336961734 0.017817431531 
0.0090787776998 0.018065047381 0.01851235283 0.0092380372867 0.0095653903013 0.0094094086453 0.0097699942957 0.019140005605 0.0068986738205 
0.0066005601414 0.0079923277439 0.015512315446 0.018503492148 0.017907554656 0.025173646715 0.017566643383 0.013520442909 0.021965529153 
0.025082312285 0.0095799092938 0.0067339345345 0.0084995368797 0.015626176312 0.0223794372 0.015447629536 0.0078402636999 0.0074768727334 
0.0065445214526 0.0066507980218 0.01569323428 0.017850495581 0.01746740732 0.0182955778 0.0091168222833 0.010172604623 0.011360159629 
0.0093121921101 0.0091053018543 0.035196393233 0.020194258565 0.0080434466021 0.01870031716 0.01656742086 0.019949835177 0.010987305259 
0.0099174975496 0.0095809776788 0.010013293203 0.0099324206086 0.014362089328 0.0072639316304 0.012110438252 0.015894306604 0.018213999341 
0.0095903829355 0.011445864358 0.014340095544 0.024050194273 0.047216065924 0.040201426989 0.018798106667 0.0095687194158 0.01062717543 
0.02673090736 0.02414790531 0.019041520871 0.010858886876 0.010027485428 0.0091211632455 0.025658299815 0.017200810325 0.0087691442737 
0.010252995764 0.010210767246 0.0085140114241 0.013022325909 0.018897502087 0.017387062142 0.0082844156861 0.0078695095674 0.0064923538876 
0.023411793969 0.01803817792 0.0092952644655 0.0084895021193 0.010179874296 0.010099417245 0.0082858154699 0.011192947256 0.010946256255 
0.011187723669 0.010534630779 0.006760856042 0.015235735461 0.036554711138 0.017871880902 0.017153177378 0.015374832025 0.0050002206827 
0.0064914433128 0.0049221729871 0.0049945475166 0.0021386130351 0.0014627790265 0.002806572854 0.0028507258296 0.0027277329573 0.0024717932147 
0.0028540291134 0.0028656633692 0.0018310997047 0.0016496048457 0.0045604763111 0.0060835941135 0.002767624601 0.0028035081773 0.0035521842125 
0.0040510179998 0.0048552253542 0.0051965760422 0.0072466336835 0.0078675991269 0.0095195507928 0.0087436236487 0.018773432024 0.010641765895 
0.010268002679 0.018508059615 0.026521645053 0.010949237823 0.011633615535 0.016485505516 0.011767949765 0.014165530211 0.0077525446735 
0.0083082934023 0.0053085765618 0.0043632525801 0.0027053385318 0.0021466994974 0.0027042540633 0.0040801757945 0.0025405472518 0.0022392476412 
0.0019684568927 0.0027209989856 0.0026603536777 0.0031407837552 0.0027285424516 0.0024718190028 0.0024465564389 0.0022935290054 0.0023668719721 
0.0024529127207 0.0034144211005 0.0025000068647 0.0022666275283 0.0021563390972 0.0031676746903 0.0034665560432 0.0037763594312 0.0035151355707 
0.0044823107517 0.0030673348371 0.0023241441116 0.0023515518033 0.003635897967 0.0034483337503 0.0045331051639 0.0082510658584 0.0065084023384 
0.0030141136115 0.00361537275 0.0052796023005 0.010537526221 0.0095036836238 0.0094055914064 0.011281133164 0.010687884644 0.012333653151 
0.011139610539 0.010295331262 0.011184547967 0.0067636929058 0.0071935281305 0.0086600217932 0.0088119681667 0.0091740580234 0.008444680999 
0.0083869123651 0.0083818396566 0.008474405624 0.0083946908478 0.0087141107202 0.0082572713402 0.0078832729223 0.0077827991096 0.0081317841043 
0.00835190137 0.0081087729651 0.0080257294113 0.0082319513863 0.0068543370932 0.0076248062972 0.0072270453839 0.0082437896454 0.022283645722 
0.018634666212 0.0096131816343 0.0088560836413 0.0088004239596 0.0099994949385 0.008297263297 0.0099572401513 0.0089109818595 0.010068256231 
0.0078338780405 0.011651083672 0.010735536457 0.010161230287 0.0093062135035 0.0066476435178 0.0046594210335 0.0046839840262 0.005081035052 
0.0064982615747 0.0046434733634 0.0025605788213 0.0021842430327 0.0029271317089 0.0034704288769 0.002986148257 0.0032981164384 0.0037389643411 
0.0034646380862 0.0035751283649 0.0047048952839 0.0048639404011 0.0079383735241 0.0027419279438 0.0031101910169 0.0034034077913 0.0032100757173 
0.0025972406157 0.0029702708479 0.0046643505074 0.0031639975936 0.0036352425546 0.0035153374111 0.003871730653 0.0035451969287 0.0034882627544 
0.0052636077925 0.0034776909162 0.0035982494817 0.0037442375893 0.0033924501066 0.0039314693716 0.0031157673993 0.0037608029299 0.0048350834392 
0.0061993865545 0.00536331784 0.0050774550253 0.0078048275874 0.0080593771451 0.0068636221414 0.0074259791406 0.0081716072096 0.0061473077523 
0.0057830623243 0.0073270837177 0.008872638386 0.023464393301 0.021297127102 0.0033443914193 0.003413131906 0.0035817991933 0.0034371524702 
0.0074363086307 0.0055944944165 0.0055390003603 0.003479000428 0.0034264072896 0.002597970771 0.0026679409104 0.0026153976401 0.0032224204595 
0.0048566896208 0.006095319725 0.0046545848876 0.0042614178303 0.0062974225282 0.0055752381143 0.0072676547112 0.0080225207197 0.0065807682233 
0.0095451646826 0.016623741189 0.014214517503 0.0072847724435 0.01536955303 0.015554705368 0.012957827122 0.0083975491517 0.0084368554786 
0.0084962199097 0.0090913361449 0.0094865537504 0.0090602130362 0.0081034583104 0.0065583958287 0.0067569665773 0.010485988271 0.00935576819 
0.0088315153259 0.012922316766 0.015284644501 0.0059581738393 0.0048572116092 0.0052942470103 0.0062829271816 0.005369069744 0.0054791088603 
0.0037904098184 0.0041925728665 0.0036026407764 0.0070282214861 0.0055755091233 0.0049290100066 0.0042455569297 0.0051518104576 0.010858698833 
0.013302118999 0.014958354985 0.019176931942 0.0058037360199 0.010239700857 0.0083824888495 0.0024306005335 0.0023460408686 0.0021445364674 
0.0026967887943 0.0042457477213 0.0039644383062 0.0057365733712 0.0093680825004 0.011448723641 0.0033944483675 0.0044331978665 0.0035961696744 
0.0034602013896 0.0025665714592 0.002691407171 0.002112408606 0.0017975060226 0.001987213064 0.0039647691399 0.0047544569457 0.0062106037632 
0.0059278144595 0.0050583439619 0.0048854232958 0.003930300114 0.0038481363962 0.0040983812583 0.0048308672265 0.004267625855 0.0039730839857 
0.0030810964588 0.0034108521182 0.0029675596074 0.0036995133713 0.0059389159996 0.0018195826652 0.0023364712501 0.0024642448285 0.0037575497698 
0.0054118891728 0.0027758652225 0.0028439617582 0.0026455064524 0.0025072487978 0.0023498632309 0.0017419048449 0.0022510741473 0.0034051950359 
0.0064308069535 0.0050948283519 0.0028299387855 0.0021724391171 0.0027126346325 0.00366807181 0.0041440596262 0.0036385682199 0.0032919426774 
0.0028025675455 0.0034251078414 0.0045960476078 0.0040526508303 0.0035647676043 0.0030085256991 0.0046199754461 0.0047452519297 0.0059953366643 
0.002961003442 0.0067246860804 0.0077974850695 0.012475181577 0.0068386696392 0.0036068116418 0.0050829516142 0.0039689442786 0.0036251024243 
0.0022743894804 0.0024088997376 0.0030148629978 0.0044896796434 0.0035696452632 0.005440436658 0.0052779709054 0.0066840554985 0.0061405420971 
0.0025570025368 0.0029304686923 0.0026139648327 0.003031199821 0.0051492186467 0.0032727065875 0.0057762852546 0.0053016301731 0.0033044328572 
0.0028030497431 0.0036454154347 0.0036368621577 0.0041815877762 0.0035703530315 0.0043350500432 0.0040862588632 0.0027511636964 0.0066658253766 
0.0016680669123 0.002651099023 0.0039790121715 0.0024545793314 0.003276063346 0.0034234871805 0.0030257056508 0.0025751890507 0.003102035102 
0.0025837564394 0.0029036260202 0.0030153222856 0.0021542330456 0.0032497584952 0.0037791099267 0.0025117402781 0.0020596056313 0.0017311138027 
0.0061283871391 0.0017842148045 0.0029414681746 0.0059417802733 0.0073801896803 0.0078783065525 0.0093503134159 0.01065777373 0.010849208373 
0.010252404814 0.0094435408275 0.0077091079823 0.0077349372732 0.0096117469072 0.011519696218 0.0070421870224 0.007898464634 0.0077930489196 
0.0058457390548 0.0039571956764 0.0036272343679 0.0030919240196 0.0022783027284 0.0017081376044 0.0027773344106 0.0021330069629 0.0030593900476 
0.0061418536601 0.0031069608951 0.0031778932354 0.0037123718249 0.006792370573 0.0088253163216 0.0083377083401 0.0069835357191 0.0070057840074 
0.005548800982 0.0065761206867 0.0083570912695 0.00809531249 0.0075869497997 0.0075402383557 0.010772083654 0.0062855361551 0.0091228669766 
0.0092229519927 0.0098074246433 0.0070324331273 0.0093776651313 0.010899484623 0.0095734648919 0.0094812869281 0.010043254614 0.011083702348 
0.0092982576229 0.0079763840617 0.0068186465575 0.0085337710198 0.010271097225 0.012348535431 0.012060789329 0.0079396169128 0.01556228462 
0.018977814933 0.0086079005446 0.0079909258651 0.006846165276 0.0090871717741 0.0093252600334 0.0071578210575 0.0075106486046 0.014928332605 
0.015165832931 0.022893897478 0.0096625296978 0.006014441739 0.012890083458 0.016097881615 0.0072189136552 0.0051378117236 0.0041251311915 
0.002610779964 0.0024032091362 0.0029347058735 0.00244295212 0.0028148853476 0.0020533082002 0.0012609435896 0.0016371207722 0.004195991245 