# vtk DataFile Version 4.2
vtk output
ASCII
DATASET POLYDATA
POINTS 18551 float
24.4388 -12.8577 1.95318 24.4407 -12.7332 1.82795 24.4966 -12.6076 1.95399 
24.5286 -12.4835 1.95301 24.4944 -12.4827 1.82877 24.5229 -12.3581 1.82826 
24.5367 -12.6086 2.0777 24.5654 -12.4834 2.07807 24.5552 -12.3582 1.95301 
24.5894 -12.3579 2.07903 24.6053 -12.4829 2.20348 24.6337 -12.358 2.20306 
24.6512 -12.4836 2.32671 24.6171 -12.6075 2.3282 24.5766 -12.6081 2.20284 
24.5868 -12.7333 2.32751 24.6252 -12.7328 2.45295 24.5921 -12.8582 2.45254 
24.6275 -12.8575 2.57838 24.5934 -12.9833 2.57766 24.6276 -12.9828 2.70307 
24.5905 -13.108 2.70275 24.6223 -13.1078 2.82786 24.5839 -13.2325 2.82762 
24.6126 -13.236 2.97134 24.5768 -13.3582 2.95267 24.5952 -13.3506 3.05159 
24.6493 -13.1899 3.08629 24.654 -13.1041 2.94823 24.678 -13.0834 3.06201 
24.6683 -13.1402 3.19097 24.6433 -13.2349 3.19505 24.6305 -13.2028 3.27857 
24.6002 -13.3004 3.27422 24.6029 -13.362 3.20621 24.5622 -13.4229 3.26614 
24.5683 -13.4722 3.19843 24.5649 -13.4692 3.06702 24.5402 -13.5554 3.17802 
24.5301 -13.5801 3.07096 24.5088 -13.6403 3.19192 24.4975 -13.6676 3.11406 
24.4702 -13.7237 3.19751 24.4697 -13.7299 3.0687 24.499 -13.6171 2.96812 
24.4498 -13.7354 2.95475 24.47 -13.6089 2.82761 24.513 -13.4838 2.82737 
24.5179 -13.3583 2.70293 24.5509 -13.3587 2.82709 24.543 -13.4845 2.95192 
24.5541 -13.2331 2.70229 24.4828 -13.2322 2.45337 24.4543 -13.359 2.4522 
24.4812 -13.1076 2.32847 24.5576 -13.1085 2.57712 24.5155 -12.9824 2.32842 
24.4493 -13.1084 2.20268 24.4694 -12.8571 2.07903 24.5464 -12.7338 2.2022 
24.5542 -12.8589 2.32683 24.5579 -12.9837 2.45188 24.4172 -13.1088 2.07742 
24.3511 -13.2333 1.95305 24.3819 -12.9827 1.82854 24.3161 -13.3586 1.95266 
24.2757 -13.4832 1.95298 24.2858 -13.3564 1.83332 24.2446 -13.4749 1.82402 
24.1882 -13.7342 1.95277 24.1594 -13.7339 1.82802 24.2043 -13.6086 1.82809 
24.0303 -14.1084 1.95285 23.947 -14.2292 1.82821 24.1075 -13.858 1.82825 
19.8951 -16.332 1.70292 19.77 -16.335 1.82786 19.8951 -16.3128 1.45276 
20.5202 -16.3854 1.82821 20.3951 -16.3785 1.82811 20.5202 -16.3699 1.70303 
20.895 -16.4027 1.82818 20.7701 -16.3835 1.70292 20.8951 -16.3563 1.45289 
24.2662 -13.6086 2.07824 24.3101 -13.4837 2.07762 24.3809 -13.358 2.20326 
24.3767 -13.4827 2.32864 24.4181 -13.359 2.32753 24.4164 -13.4843 2.45196 
24.4505 -13.4841 2.57718 24.4064 -13.6092 2.5772 24.3697 -13.6084 2.45311 
24.3546 -13.7331 2.57786 24.2853 -13.7336 2.32768 24.3032 -13.6101 2.20201 
24.198 -13.8577 2.20303 24.2309 -13.8571 2.32825 24.1811 -13.9832 2.32769 
24.2479 -13.9824 2.57801 24.3019 -13.8584 2.57752 24.2713 -14.0992 2.84294 
24.335 -13.8579 2.7027 24.4216 -13.7344 2.82736 24.3588 -13.9445 2.95143 
24.388 -13.9288 3.07818 24.3254 -14.0831 3.0723 24.365 -13.9789 3.18717 
24.3348 -14.0595 3.15935 24.3007 -14.1451 3.1205 24.2863 -14.1436 2.99386 
24.3191 -14.0464 2.95607 24.2404 -14.2334 2.95695 24.2118 -14.2339 2.82762 
24.1886 -14.3467 2.95269 24.1608 -14.4439 3.0734 24.2634 -14.2261 3.07343 
24.2261 -14.3032 3.15873 24.15 -14.4692 3.19525 24.1165 -14.5417 3.09695 
24.1261 -14.4812 2.95867 24.0759 -14.5875 2.94732 24.0673 -14.6441 3.06589 
24.0827 -14.6111 3.21116 24.0519 -14.6879 3.15833 24.0237 -14.7359 3.06783 
24.0083 -14.7339 2.98005 23.96 -14.8615 3.07858 23.9374 -14.8595 2.9525 
23.9809 -14.733 2.85562 24.0324 -14.6091 2.79973 23.9575 -14.7154 2.71398 
23.9088 -14.8591 2.82789 23.8797 -14.859 2.70258 23.9133 -14.7342 2.57719 
23.9764 -14.6067 2.58024 23.9642 -14.4833 2.32788 24.0231 -14.3586 2.32764 
24.0361 -14.48 2.57471 24.0786 -14.2337 2.32756 24.1809 -14.2344 2.70243 
24.158 -14.3519 2.82225 24.1132 -13.9823 2.07819 24.043 -14.2335 2.20285 
24.1357 -13.8579 1.95315 21.02 -16.4024 1.82806 21.0203 -16.3685 1.57766 
21.1457 -16.3629 1.60542 21.4925 -16.3802 1.95327 21.4069 -16.3309 1.6914 
21.5197 -16.3379 1.82886 19.2698 -16.2816 1.82778 19.145 -16.263 1.8279 
19.2703 -16.2545 1.57805 19.02 -16.2163 1.45289 18.8954 -16.2236 1.82798 
18.7703 -16.1784 1.45292 15.7697 -15.5814 1.73055 15.6326 -15.521 1.56614 
15.7631 -15.5728 1.6075 15.6388 -15.5372 1.82785 15.5198 -15.4901 1.80001 
20.7684 -16.4508 2.07395 20.6451 -16.4155 1.95299 20.895 -16.4256 1.95347 
21.1285 -16.4017 1.84451 15.019 -15.2685 1.67506 15.2536 -15.3508 1.34457 
15.2694 -15.3875 1.80008 14.8947 -15.2142 1.85565 14.7691 -15.1454 1.80004 
14.8943 -15.1979 1.48067 15.0189 -15.2809 1.92506 13.3965 -13.7776 1.70837 
13.3349 -13.7723 1.74889 13.3341 -13.7385 1.59281 13.4031 -13.7741 1.58003 
13.4927 -13.9019 1.70524 13.5557 -13.9926 1.72176 13.5624 -14.0006 1.61427 
21.5204 -16.4187 2.07754 21.2701 -16.4115 1.95318 21.6333 -16.3504 1.9415 
21.6458 -16.3975 2.0772 21.77 -16.3315 1.98148 21.771 -16.381 2.10517 
21.9073 -16.3254 2.06635 21.8963 -16.2792 1.92501 22.0204 -16.2458 1.95299 
22.0194 -16.3316 2.17689 22.1463 -16.2599 2.10519 22.1453 -16.318 2.23144 
22.2719 -16.2606 2.20264 22.2433 -16.3348 2.3265 22.3866 -16.2843 2.33618 
22.2996 -16.3708 2.45102 22.1737 -16.4155 2.45154 22.1298 -16.3807 2.34249 
22.0312 -16.4521 2.44112 22.0206 -16.3905 2.29921 21.8953 -16.4407 2.32899 
21.8959 -16.3857 2.20305 21.7873 -16.4763 2.34509 21.6731 -16.4924 2.32812 
21.7428 -16.5333 2.45176 21.8852 -16.5092 2.46219 21.8964 -16.5656 2.60447 
22.0204 -16.5164 2.57723 22.0086 -16.5769 2.71461 21.9133 -16.6434 2.80898 
22.0231 -16.6284 2.85265 22.1458 -16.571 2.82698 22.1472 -16.5278 2.70096 
22.274 -16.518 2.8275 22.2626 -16.5582 2.9642 22.3969 -16.4875 2.95274 
22.3971 -16.5161 3.07678 22.2714 -16.5874 3.10531 22.1471 -16.6377 3.07693 
22.1191 -16.6184 2.95164 22.0204 -16.6823 3.07783 22.0057 -16.6649 2.96823 
21.8954 -16.6816 2.92467 21.8947 -16.7138 3.05063 21.7705 -16.7192 2.95215 
21.7982 -16.673 2.82643 21.6574 -16.7023 2.83832 21.6331 -16.6447 2.69153 
21.6286 -16.546 2.43545 21.5036 -16.6728 2.71973 21.5204 -16.5793 2.47961 
21.5202 -16.4653 2.2029 21.3955 -16.5816 2.4517 21.2704 -16.5028 2.23063 
21.2821 -16.4511 2.0902 21.1452 -16.4994 2.20253 21.145 -16.4567 2.07833 
21.0201 -16.5008 2.20251 21.02 -16.4605 2.07809 21.1449 -16.4217 1.95349 
20.8854 -16.4953 2.20272 20.8891 -16.458 2.0819 20.7699 -16.4868 2.20292 
20.5202 -16.4597 2.20362 20.5201 -16.4292 2.07851 20.3949 -16.4491 2.20305 
20.3951 -16.4203 2.07821 20.5201 -16.4062 1.95302 20.3952 -16.3975 1.95309 
20.27 -16.411 2.07791 20.27 -16.3918 1.95277 14.119 -14.6731 1.66901 
14.2051 -14.75 1.61158 14.2083 -14.7587 1.9527 14.276 -14.8115 1.71758 
14.2883 -14.8135 1.48099 14.3939 -14.8974 1.57748 24.5495 -12.2334 1.82798 
24.5783 -12.2332 1.95336 24.5969 -12.1083 1.95374 24.5699 -12.1083 1.82808 
24.6104 -11.9833 1.95413 23.5996 -14.8577 1.70328 23.674 -14.7345 1.70299 
23.5915 -14.9766 1.95305 23.6992 -14.859 2.07827 23.8121 -14.5798 1.95416 
19.77 -16.3473 1.95303 19.5201 -16.3215 1.95301 23.7348 -14.6247 1.71964 
23.8313 -14.4794 1.82802 23.9201 -14.3586 1.95575 21.5474 -16.3029 1.70351 
21.7702 -16.2932 1.85603 21.7832 -16.2318 1.58929 22.2604 -16.0601 1.68507 
22.2611 -16.1406 1.93044 22.2075 -16.1107 1.76552 18.5203 -16.185 1.95293 
18.3951 -16.1688 1.95292 18.5202 -16.1631 1.70294 18.3952 -16.1458 1.70294 
18.2701 -16.1516 1.95285 18.1449 -16.1129 1.70279 18.2701 -16.1202 1.57785 
14.8951 -15.2261 2.10557 15.0056 -15.2868 2.17508 14.853 -15.2137 2.23084 
14.9366 -15.2628 2.30032 14.7834 -15.1931 2.35556 14.6856 -15.1323 2.3005 
14.755 -15.1574 2.175 14.6021 -15.0735 2.23108 14.5328 -15.0509 2.35544 
14.4371 -14.98 2.3146 14.5049 -15.0044 2.17492 14.3717 -14.9224 2.24831 
14.3034 -14.9122 2.41533 14.2504 -14.8423 2.30379 14.1474 -14.8008 2.45942 
14.1459 -14.7675 2.34385 14.0487 -14.6752 2.31741 13.9705 -14.6478 2.45074 
13.9365 -14.5397 2.22178 14.0198 -14.607 2.14958 13.7438 -14.3272 2.16959 
13.8865 -14.5434 2.37215 13.7137 -14.3892 2.41883 13.6537 -14.2521 2.22169 
13.6272 -14.2891 2.37521 13.6064 -14.3103 2.48683 13.5376 -14.2086 2.40659 
13.5608 -14.1946 2.31208 13.4912 -14.1185 2.30935 13.5602 -14.1402 2.19954 
13.6624 -14.216 2.09249 13.5572 -14.0884 2.07687 13.4824 -14.0469 2.18244 
13.4779 -13.9887 2.06578 13.4281 -13.9481 2.08917 13.4336 -13.9105 1.99268 
13.527 -14.0072 1.96894 13.4602 -13.8984 1.88377 13.3972 -13.8423 1.92034 
13.3604 -13.8714 2.00498 13.3903 -13.9034 2.06495 13.247 -13.905 2.09144 
13.2643 -13.9506 2.1912 13.1831 -13.9377 2.15539 13.1689 -13.8913 2.05664 
13.2543 -13.8417 1.96644 13.1703 -13.8286 1.9335 13.2446 -13.7893 1.84763 
13.3308 -13.8064 1.85981 13.3996 -13.8095 1.82478 13.4994 -13.9245 1.80209 
13.5677 -14.0294 1.8512 13.6049 -14.1136 1.95403 13.625 -14.1097 1.82898 
13.715 -14.2466 1.94178 13.792 -14.3524 2.0652 13.9256 -14.4837 1.9338 
14.1251 -14.6893 2.04283 14.1551 -14.7414 2.20689 14.2919 -14.8474 2.15222 
14.3006 -14.8401 1.99816 18.0202 -16.0824 1.57787 18.0205 -16.103 1.8279 
17.895 -16.0903 1.8278 17.7698 -16.0747 1.82781 17.8953 -16.065 1.57792 
16.2696 -15.7483 1.80007 16.0197 -15.6658 1.7028 16.2697 -15.7409 1.67504 
15.8946 -15.6231 1.67501 14.3942 -14.9037 1.82757 14.5183 -14.992 1.80007 
14.519 -15.0025 2.05006 14.3898 -14.9136 2.08758 14.6439 -15.0872 2.10548 
14.6434 -15.0806 1.98057 14.7688 -15.157 2.05006 14.6435 -15.0705 1.73064 
16.3858 -15.7751 1.70291 16.3947 -15.7859 1.82787 16.5316 -15.8324 1.96478 
16.5198 -15.8105 1.70293 12.9388 -13.7134 1.93524 12.925 -13.6191 1.82225 
13.0241 -13.5992 1.6245 13.2264 -13.684 1.58059 13.2494 -13.736 1.71524 
13.179 -13.7127 1.68821 24.6137 -12.2331 2.07921 24.6348 -12.1083 2.0787 
24.661 -12.2337 2.20167 24.6803 -12.3587 2.32631 24.7021 -12.2334 2.32723 
24.6805 -12.1084 2.20143 24.7173 -12.1082 2.32823 24.7397 -12.2332 2.45325 
24.7589 -12.1081 2.453 24.783 -12.2336 2.57639 24.755 -12.358 2.5777 
24.7167 -12.3582 2.45295 24.7264 -12.4831 2.57776 24.7624 -12.4833 2.70234 
24.7299 -12.6078 2.70274 24.7611 -12.608 2.82756 24.7288 -12.733 2.82757 
24.7544 -12.7332 2.9525 24.7213 -12.8635 2.96486 24.7509 -12.8142 3.0846 
24.7232 -12.9159 3.1295 24.7052 -12.9767 3.06497 24.7047 -12.9851 3.21142 
[...]
CELL_DATA 37098
FIELD FieldData 1
Area 1 37098 double
0.016469985137 0.0082274312524 0.0083156870513 0.0083538668832 0.0083346346841 0.0083284788942 0.0083885942274 0.0084143533377 0.0084022555607 
0.0084248795769 0.0084332974243 0.0084933701442 0.0084611937824 0.0084789012486 0.0084517714592 0.008489553236 0.0084439692789 0.0084588419162 
0.0084046718681 0.0083954162399 0.0095552267197 0.0092887876515 0.0062618579134 0.0089543608273 0.0087093147362 0.0066683321314 0.0064225949125 
0.0052425286755 0.0042683354555 0.0043532995934 0.0050613048622 0.0043367692555 0.003918480041 0.007598881276 0.0094150988298 0.0057907720248 
0.0062748027234 0.0050314010372 0.0042722517395 0.0036605632539 0.0042613635777 0.0060888644459 0.0072897320912 0.0091807085481 0.0095036811386 
0.0085580464091 0.0083778568387 0.0083582912972 0.0083654647503 0.0075992986381 0.0083573116659 0.0083838283171 0.016835980574 0.016775672293 
0.0084024487174 0.016785891221 0.016840608551 0.0084025248603 0.025197618709 0.025256966086 0.0084799750736 0.0085121839338 0.0084215063728 
0.0085084655744 0.016845491743 0.0084645627309 0.016608334129 0.016591807657 0.016600328034 0.0082420203489 0.024925323085 0.0080530726271 
0.0083268046055 0.0084974115677 0.025850688996 0.015720615557 0.0078978083755 0.023635436591 0.017204447924 0.0085319221142 0.0084444693043 
0.016921546825 0.01691870654 0.0084376190354 0.0084247813049 0.0084663571765 0.0084668011506 0.0085736264472 0.0085475720528 0.0086460307824 
0.01736571496 0.017373748087 0.017175064155 0.0086107707209 0.026064155452 0.0086889371575 0.0087297437203 0.017469997936 0.017442641772 
0.018481840308 0.016870364149 0.0087492590033 0.017360972742 0.02333168414 0.014813328132 0.014596678573 0.010624381602 0.0092380376429 
0.0033933398618 0.0035170408357 0.0043585221736 0.0054298749683 0.0072060979588 0.0084078383365 0.0096265936502 0.0081898594601 0.0077889887205 
0.014182818644 0.010270642141 0.010623556816 0.0062178871955 0.0067866870082 0.0085232818149 0.0076497513899 0.0076867772794 0.0050500898753 
0.0046584989159 0.0045271363519 0.006295255218 0.0090894815519 0.0089764536355 0.01041466078 0.011166157144 0.0095239107706 0.010561911871 
0.010368870223 0.011225332512 0.0099251411752 0.018701376462 0.017933711391 0.017584779521 0.017389229262 0.052032132576 0.025077504788 
0.034390285727 0.021374115711 0.0099108630565 0.0082823917711 0.017380877031 0.052332120857 0.034829227625 0.017562170635 0.026160907441 
0.017414175875 0.015798902552 0.015890622656 0.0095519429261 0.015852775272 0.03949001116 0.0474813076 0.0084583164983 0.016596119539 
0.023441196516 0.0080647682061 0.0079632091222 0.0079294922425 0.061395514457 0.026644758046 0.03437128426 0.0050542591954 0.010100208843 
0.0060233949589 0.014727133494 0.0095843522965 0.0091612105491 0.0098783581832 0.0085035738728 0.0094385671592 0.010063087016 0.0096218843887 
0.014089374225 0.015952795166 0.0091038795075 0.0092035660795 0.0087373713425 0.01070017061 0.010091315831 0.0090450239237 0.0075238107526 
0.0085074136958 0.0085018809229 0.0074668421213 0.010292031721 0.0089095496649 0.0087859626635 0.007626610961 0.015912614746 0.014911580611 
0.0072114165419 0.0087294408554 0.011079521924 0.010109569526 0.0093978626617 0.011793221066 0.0081248870499 0.0099281847929 0.0096313022513 
0.009164854139 0.0097602251236 0.010463263909 0.0095345476163 0.010332073354 0.0097255572557 0.0098885710464 0.0086220286468 0.0069083788487 
0.0070392073952 0.0072221523572 0.007391040471 0.0083315714593 0.0080237029188 0.0069208591127 0.009271961909 0.01150974844 0.02952472577 
0.015838362739 0.017987071512 0.013632818073 0.0053184742133 0.023117850179 0.018952779803 0.01877755511 0.031921268815 0.018561884122 
0.016031121447 0.0095384560976 0.0090199688847 0.0097356073407 0.008218221768 0.0081798401486 0.0081089487948 0.0088165285331 0.0082691952366 
0.015595026293 0.0073225098289 0.0080834080433 0.016802910067 0.016047669307 0.0080965779101 0.0080286908076 0.0079946402833 0.0079615434213 
0.0079743158467 0.0079342317059 0.0079226326036 0.0079152493083 0.019920157961 0.016481835595 0.008204094485 0.0081682229187 0.0080773669034 
0.018387287709 0.05121603375 0.015799849521 0.016613265038 0.017652268709 0.023680088287 0.0094148654649 0.0090212083829 0.021304550001 
0.032013363418 0.0074743719983 0.015843137279 0.015833334465 0.023787531802 0.017426952691 0.016089444323 0.009411108531 0.0086016657512 
0.008555973274 0.0091878235028 0.0091547442593 0.00896222332 0.0088706324752 0.0089378185528 0.010357735892 0.0084329507247 0.0094242407998 
0.010647517864 0.01279546109 0.0080352060003 0.0075922052705 0.016321987388 0.015714275674 0.011565317288 0.013334753176 0.023104028149 
0.030323995139 0.015650589793 0.010391212389 0.0076149482145 0.0069504732263 0.0057959659843 0.0050706495665 0.0060455108344 0.0081438536151 
0.0094368761529 0.010143382323 0.0073414608496 0.0074609971525 0.0044561514384 0.0035073956218 0.0061426612256 0.0074472374121 0.0045455151005 
0.0038448940244 0.0028057529757 0.0052478185288 0.0080927011165 0.004127008779 0.0039951906455 0.005611233396 0.0058372231054 0.0052862183902 
0.0055528036101 0.0050893843507 0.0040027312536 0.0038962889402 0.0092687862573 0.0057832535508 0.0076741131271 0.0051811225943 0.007216061387 
0.0085015417833 0.0075650594301 0.0061458981681 0.010844314659 0.012786961389 0.013477220901 0.0092683966846 0.020190333061 0.030403539052 
0.02268151662 0.014070717286 0.015852463839 0.012286952877 0.016295900892 0.0095448020227 0.01641850493 0.015824122157 0.015831981406 
0.016377359127 0.0083576167392 0.019133042455 0.020446164798 0.0096253221151 0.0097457792179 0.009319893447 0.0090481461857 0.0086271793329 
0.0093367521066 0.018178843841 0.01777012103 0.018107958883 0.018660704128 0.0075529173493 0.0080186107911 0.018667885679 0.014916599504 
0.018584875974 0.017757230795 0.011781267131 0.0047730881595 0.0071760498719 0.0081546874556 0.0082469954228 0.0082539519284 0.0082953709334 
0.00833593605 0.0083695995487 0.0083843098506 0.0083670743871 0.0083189694065 0.0082855409967 0.0083145532164 0.0082532733443 0.0083082869998 
0.0082791968729 0.008354288892 0.008303887325 0.0083235183021 0.0082650889736 0.0082917487325 0.0082214159857 0.008599457365 0.0084633242062 
0.007607121544 0.0068655133406 0.0049077705365 0.0053891586151 0.0067056100163 0.0062438511365 0.0044509768327 0.0041690454182 0.0066291792399 
0.0039469685057 0.003737174477 0.0036403509446 0.0038942773831 0.0036377572899 0.0055015087543 0.0060273224048 0.00608127314 0.0071706696733 
0.0060239900349 0.0047182604372 0.0060499067796 0.0091578029402 0.0084779696826 0.0051007711291 0.007195518982 0.0073920263173 0.00637745826 
0.0080278393039 0.010237357601 0.0071955230667 0.0072695591537 0.006574091257 0.0093350418723 0.0093965351038 0.0094982130474 0.009433071325 
0.0096814900751 0.01071737017 0.0091421812707 0.0067598748683 0.0065805703997 0.010211902762 0.010641589516 0.0065905440521 0.011721284156 
0.0092766016764 0.011795850921 0.00954732418 0.0091799223109 0.0099698444486 0.0096148893829 0.010285507203 0.0094000269804 0.0087487755291 
0.0070346273583 0.0065539227788 0.0053276782887 0.0041307728895 0.0037659623924 0.0040586624771 0.0039125024097 0.0032237992591 0.0037473136159 
0.0055444386285 0.0032924007475 0.0033778015845 0.0042244413378 0.0029883019625 0.0030405523984 0.0037305522296 0.0047240829604 0.0050133452968 
0.0041241741581 0.0041052800865 0.0029387253347 0.005519059331 0.0056416210382 0.0041268027261 0.0037676309837 0.007204921469 0.01075271512 
0.0058672647421 0.0043997908737 0.0035126374425 0.0025433860156 0.0018116740508 0.0044525483737 0.0048934786204 0.0034436372888 0.0029629201875 
0.0030123625039 0.0084462255112 0.005719643421 0.004682056842 0.0073701106419 0.0047847693227 0.0043699301657 0.0066112587322 0.0059463031042 
0.0047882914625 0.0036735315571 0.0034092778175 0.0044636843006 0.0035574087032 0.0049953336643 0.0071329021441 0.0064255531135 0.0079790886687 
0.0034014273252 0.0059118446405 0.0061513991187 0.0083201514571 0.0049593829086 0.0053888318374 0.0064088095337 0.0049429572412 0.0046211708456 
0.0054656506683 0.0038577936207 0.0039541072427 0.0034553609734 0.0051358734926 0.0050448521274 0.005377764659 0.004637640613 0.0031513954341 
0.0031006941238 0.0034292413535 0.0024744683373 0.0036453101759 0.0046820525822 0.0042594692099 0.0044979873685 0.004133417017 0.0072438337339 
0.0080741041177 0.0076515857764 0.0072246340445 0.009118413587 0.0091106898763 0.0090936376119 0.0090939925643 0.0093241864691 0.0093416526878 
0.0093725520476 0.0093885054287 0.0094025023478 0.019026992456 0.019264609681 0.024801974226 0.015246702609 0.0070019458719 0.0078559418029 
0.0075223752604 0.0049607925849 0.0072793242778 0.0094106786132 0.010097713932 0.0092678804343 0.01882437461 0.0081964834173 0.01780099795 
0.013614935948 0.01921949337 0.021980644665 0.015326419475 0.013261148416 0.020015142226 0.015603681012 0.0087746512659 0.0081869788102 
0.010107302949 0.010212112506 0.011096959711 0.0097220520184 0.01027115584 0.0099371980034 0.0090400682127 0.0087782984445 0.010652762767 
0.0067099744928 0.0090291892255 0.0081377329766 0.0077897822734 0.010574775933 0.018790270885 0.028803572792 0.016322765976 0.014270425655 
0.012032349337 0.014964881309 0.0099058490394 0.00670749598 0.015378364222 0.016137865953 0.017780084783 0.011278009769 0.0073731515056 
0.007928699103 0.0084240355471 0.0092698683178 0.0095913003189 0.0095204924035 0.0044355060711 0.0078823446025 0.0064759614706 0.0072654837379 
0.0056405778558 0.0041113725259 0.0032469279251 0.0046757033572 0.0056240894589 0.0074721117337 0.0049753200236 0.0052323277676 0.0066698761497 
0.0066503873595 0.0048794371639 0.0053587615323 0.0093389968692 0.029356235577 0.012748019703 0.016598458339 0.0094567479833 0.009257305457 
0.01961688326 0.011821437863 0.0079045660297 0.0078631033248 0.010606851565 0.010583626182 0.0093209840166 0.0093066278102 0.010409172797 
0.010493042249 0.0090379074221 0.007408968727 0.0077916168663 0.0088962506671 0.0066289812119 0.0082099990153 0.0095933097788 0.0091464494806 
0.0083424863934 0.0082939628204 0.0072302736736 0.0072288747752 0.0083418589304 0.016651763164 0.016814967595 0.016809796196 0.015642754451 
0.0072503646269 0.0072499168257 0.006748525515 0.0083647765826 0.0083207116363 0.0082967519322 0.0083451823904 0.0082861701517 0.0082649603471 
0.0082987963664 0.0086548946736 0.008354635376 0.0085385973152 0.0082579919272 0.008150818439 0.008029989568 0.01573522747 0.016517433386 
0.0082926710334 0.0083186539346 0.0083223973513 0.0083692162617 0.0083928964233 0.0084005298788 0.0084056900515 0.0083754286499 0.008322976811 
0.0083085152914 0.0083189876079 0.0082426768772 0.008218158211 0.0080983771178 0.0081019417935 0.0081407717545 0.0080906396688 0.0080063226978 
0.0079664543935 0.0079769577539 0.015915502003 0.015862247799 0.015954432258 0.015994090737 0.015940020917 0.0079200645837 0.0079250039923 
0.007916742129 0.0079385069199 0.0079576705694 0.0079323264162 0.0079157363257 0.0079495332093 0.0079322597782 0.0079270827699 0.0079499787217 
0.0079496373327 0.015885350358 0.015860751209 0.015882625821 0.03174200833 0.0099696312719 0.031776576842 0.015918577589 0.01592356398 
0.01598118824 0.0079716812501 0.0079788432506 0.0079763351336 0.0080268532099 0.008046956709 0.0080416878783 0.0079865842415 0.008022892631 
0.0080658796007 0.0080666701414 0.0081310770841 0.0081585383905 0.0081399607266 0.008146129509 0.0081254240184 0.0080690971474 0.0080554721872 
0.0080341634372 0.0080082027228 0.0080035148621 0.0080018917783 0.007988579909 0.0079760689647 0.0079798379847 0.015917364856 0.015876747091 
0.015866723053 0.01584513775 0.0079158465835 0.0073046784913 0.0095784859136 0.0075670332433 0.015981659398 0.014511641561 0.022274187246 
0.0079291908986 0.0079239273828 0.0079346813385 0.0079415306846 0.0079250783582 0.007937381806 0.0079606418558 0.0079702703956 0.0079493955892 
0.0079543649848 0.0079533366988 0.0079629582022 0.015859067138 0.015861254205 0.0095919528271 0.016439725272 0.0079152310372 0.0079220000229 
0.024233958255 0.017065944694 0.010624279643 0.014372142233 0.015375986199 0.013741892002 0.032808626207 0.016297940503 0.016341664925 
0.017790611543 0.012689909047 0.016225067154 0.033600129335 0.015466436024 0.016279046137 0.01631033443 0.016356761257 0.016336922738 
0.016478723317 0.024757700161 0.010619949947 0.016711598334 0.0083411457418 0.01678600555 0.015750859181 0.022804862246 0.0071716785519 
0.0055613207478 0.023802832785 0.029076208887 0.0078709631926 0.0079057034519 0.0096887387422 0.019571966429 0.017457942835 0.016552157272 
0.0615608059 0.020580030787 0.016557233652 0.014025404559 0.018700877383 0.014454359978 0.01752801933 0.032959378746 0.042572931643 
0.016689874518 0.025195775987 0.013977226702 0.019475535545 0.0084455128882 0.0085497636887 0.017045543876 0.034515589507 0.010015991837 
0.017223239325 0.016126189377 0.0139243026 0.0073084551563 0.0094920278419 0.0079994191662 0.0082451664929 0.0076394061045 0.0091592737419 
0.0098082624569 0.0098195555605 0.0090466495379 0.018302853344 0.018532135676 0.027749056967 0.019799250976 0.019784015331 0.016651571207 
0.016560984775 0.00908470101 0.0099043229707 0.0084491741107 0.0097454062988 0.017830836989 0.012271026283 0.012442844425 0.011020172954 
0.0082749902225 0.0067698138463 0.0077380023919 0.0077321683339 0.0063544541855 0.0068010147325 0.0083774302017 0.010990846768 0.011035649239 
0.0075050474478 0.0060516777861 0.007483053658 0.0048469647837 0.004181233002 0.0060856172744 0.0066932157317 0.0071899626614 0.0034415405771 
0.0042035897492 0.0068489656605 0.0087250999055 0.0057153844265 0.0058255714335 0.0056411846528 0.0053006017795 0.0039685678789 0.0039523001377 
0.0059397215779 0.0040918165535 0.0044597630938 0.0081989156905 0.019216577508 0.008807451335 0.010025882445 0.045509626891 0.01904867503 
0.01530577105 0.0095548315387 0.01853365655 0.011702031949 0.024575452153 0.015755876914 0.016291497498 0.02031168276 0.015869578565 
0.014099162943 0.0079786964514 0.019442672592 0.03434667499 0.018271809943 0.009729946866 0.015898295265 0.0079305300875 0.0079440025203 
0.011362078197 0.010548631437 0.0078666652802 0.016389361247 0.02274652203 0.026020320777 0.0098885907021 0.0096663539937 0.0098537801582 
0.010218305068 0.039167914239 0.019548893876 0.0097548335221 0.010022296931 0.0095291304692 0.0099508705255 0.0091971572875 0.018248266899 
0.017950409726 0.031957569748 0.010462467254 0.028511126887 0.024185087972 0.011384288809 0.010174036383 0.024909616797 0.014487989549 
0.012258712339 0.0059085770629 0.0063640463992 0.006940726627 0.027379987556 0.013638755083 0.022054347627 0.036356576713 0.01847918336 
0.018149999993 0.015285634492 0.018118568851 0.046494779335 0.02256006464 0.018510896143 0.018511313406 0.015492448541 0.0089773469757 
0.0076293717386 0.011342727661 0.010814984038 0.011517834874 0.0065153941285 0.008036056346 0.0090568069564 0.010940856653 0.0078353223093 
0.0063778509604 0.0068492889129 0.008275861884 0.008681240219 0.010648104945 0.011244230448 0.018354827258 0.0087208727249 0.0078553674721 
0.0090504137009 0.016007666587 0.030882051772 0.015413913677 0.0090575468317 0.0086472011081 0.0079329207026 0.0094636535649 0.0096406183824 
0.0094839399327 0.0094894558603 0.016944540593 0.033851588793 0.028837305846 0.017003139205 0.013314109982 0.0090284046983 0.0084325155615 
0.0090243659791 0.016936697636 0.0094935893635 0.031012353149 0.018735954795 0.041696538501 0.024987681108 0.0086438528035 0.015295080233 
0.016461454433 0.0082398511569 0.014222154127 0.008266786793 0.0077420601109 0.0081005124452 0.0079542294183 0.008020377485 0.0082325438958 
0.0080041787147 0.0075077653245 0.0084249244021 0.011134579854 0.0089879156168 0.008918899783 0.0077136976582 0.008038877657 0.0080197387412 
0.0080591896538 0.0080256072531 0.0090651269228 0.0072521739883 0.0055739953599 0.0053490743277 0.0075897688633 0.008903025595 0.0084639871846 
0.0067439409929 0.0064824248223 0.0070868776261 0.0057479911251 0.0051675666596 0.0039068526115 0.0036149691286 0.0037848018771 0.0044373907068 
0.0030391529546 0.0064241014898 0.004641351945 0.0037152485007 0.005038220781 0.0094682812801 0.013335326863 0.011734662368 0.0083227328204 
0.0072619557967 0.0085291411564 0.0088960666808 0.0093902268081 0.01061472516 0.010666524946 0.011222604324 0.0092081504283 0.0082592971695 
0.0087836986506 0.0077695337396 0.0080147540555 0.0077683524737 0.0078354517863 0.0060931368442 0.0080856422221 0.010247357765 0.010339194801 
0.010626777204 0.0080642697631 0.0074292324008 0.0082356070971 0.0097399003686 0.010002778031 0.0098245862406 0.0098910908841 0.0065370247083 
0.0095040752903 0.0097907608063 0.008135038491 0.0095538523002 0.0095537510498 0.0094708982031 0.0087392936655 0.0089953318125 0.0099696263339 
0.0091191663247 0.0078493159195 0.0064695995906 0.0067572784881 0.01500019459 0.0062331279385 0.0079841161667 0.0099286559505 0.010934452994 
0.010848716015 0.0099232275593 0.0072035986202 0.0071118120347 0.0077093359031 0.0078063408902 0.010406381109 0.0087772198523 0.010468720945 
0.0081613191587 0.0075560255181 0.0072842074066 0.0058647297772 0.0042354105455 0.0044294932289 0.0047167641287 0.0035880470212 0.0035639837939 
0.004622937784 0.0046199330466 0.0048329025516 0.0045773602397 0.0035339752956 0.006964226975 0.0086619325543 0.0046018411916 0.004361771271 
0.0043689417879 0.0083842893553 0.0070759842241 0.008390728586 0.0073393624042 0.0093204206994 0.016948684712 0.011913623483 0.012038142074 
0.015837464574 0.0076395716851 0.0096606436361 0.0099742902309 0.010297582051 0.0093742514354 0.027760131818 0.020537235126 0.011799736204 
0.012527439205 0.017486214029 0.01170476903 0.0092500113197 0.0096441017878 0.0074339223224 0.010299357935 0.026795585937 0.023182844913 
0.02406033089 0.00956359311 0.0096487123206 0.021775108315 0.015328233337 0.0096064859883 0.015645381665 0.038846915147 0.0080490826558 
0.021992400295 0.01620438845 0.033779436484 0.0093809139126 0.010038041657 0.0093986744486 0.0086749223084 0.0089244881583 0.0091464050548 
0.012330743794 0.010378626763 0.012885869088 0.010518084303 0.0079163828389 0.0074098281684 0.011460735478 0.0097478083271 0.0066826163011 
0.0064895621266 0.0080214783981 0.0067010247281 0.007457356229 0.0067324005887 0.012222675253 0.014202090886 0.019470511839 0.0099750224609 
0.0066707605364 0.0087836952453 0.013832164543 0.0060365660021 0.0064883875059 0.0062330830263 0.0058813439954 0.0061693825068 0.0046817521263 
0.0054627075662 0.0053628453071 0.0088581039749 0.010042546152 0.007034139757 0.0084194445502 0.0062815459595 0.0076603505609 0.0081847044923 
0.0064287575117 0.0077039371128 0.0065903777615 0.0034247944986 0.0037456381003 0.0039454180138 0.0053993622683 0.0088858015808 0.017753198713 
0.0070582215232 0.0092279733402 0.0068063345315 0.0089627331639 0.0092732617062 0.0077599490827 0.0065847120037 0.008755867699 0.0091516021806 
0.0098013632149 0.010995031035 0.0088015234169 0.018646067858 0.0085865159571 0.0096916865191 0.0115146433 0.011306780404 0.013820180404 
0.0081491820654 0.0068640646102 0.0087678570962 0.019668786086 0.021801208956 0.009531277688 0.0086412907923 0.0094381096735 0.01591500276 
0.023150939236 0.025776314391 0.045417339588 0.019407437546 0.0080849306206 0.017954695919 0.0084966984101 0.0087958208242 0.0089496609837 
0.0086508604443 0.009371057425 0.0096456607025 0.0095963094174 0.018733130997 0.019044286858 0.057454338557 0.017849670829 0.037514829556 
0.019087143115 0.019094603294 0.019048040206 0.019020894757 0.019071512243 0.028560778975 0.00965193429 0.028616200211 0.028058140046 
0.027623349354 0.027153784677 0.0092047680469 0.009055481598 0.0092145075864 0.0091867270396 0.009276077892 0.0090683204983 0.018140717418 
0.028021647068 0.018703964777 0.01802383915 0.017915167446 0.016878541317 0.008684376988 0.016629961922 0.017113097637 0.016487872193 