# vtk DataFile Version 4.2
vtk output
ASCII
DATASET POLYDATA
POINTS 5064 float
-21.6977 19.9842 -11.8769 -21.5035 19.6366 -12.0725 -21.7114 19.6353 -11.8745 
-21.3121 19.8354 -12.2434 -21.3028 19.6282 -12.2713 -20.969 19.637 -12.571 
-20.9541 19.5547 -12.6179 -18.1009 19.6373 -14.8364 -18.0786 19.4265 -14.8718 
-18.3029 19.4354 -14.7525 -17.9029 19.4354 -14.9506 -17.7207 19.6539 -15.0279 
-17.6856 19.4074 -15.0729 -17.5029 19.4354 -15.1517 -21.8865 19.8923 -11.6556 
-21.9009 19.6154 -11.6707 -21.0582 19.8406 -12.4641 -20.7029 19.6354 -12.8016 
-20.7029 19.491 -12.8726 -18.4154 19.6403 -14.6491 -17.2881 19.6318 -15.2381 
-22.0321 19.6354 -11.4726 -21.9098 20.2849 -11.6591 -21.5166 19.9861 -12.0614 
-21.2906 20.294 -12.2931 -20.6837 19.8321 -12.7958 -20.5897 19.6427 -12.8917 
-18.7315 19.4428 -14.4615 -18.8189 19.6304 -14.3526 -18.4682 19.4329 -14.6626 
-18.3918 19.9332 -14.6757 -18.0949 19.8908 -14.8563 -17.5992 19.8443 -15.0895 
-17.2203 19.4344 -15.2726 -16.8983 19.6525 -15.4017 -16.7359 19.436 -15.4741 
-16.9029 19.4354 -15.4113 -16.7004 19.6356 -15.4747 -16.4961 19.4372 -15.5353 
-13.7155 19.2353 -14.2477 -13.6187 19.2354 -14.0726 -13.7029 19.1438 -14.2726 
-13.5372 19.4354 -13.8726 -13.513 19.1778 -13.8522 -13.5037 19.2377 -13.7783 
-22.0214 19.9314 -11.4773 -22.1034 19.6355 -11.3435 -21.6736 20.3501 -11.9046 
-21.4887 20.4299 -12.1085 -20.9219 20.2294 -12.6279 -20.3091 19.8323 -13.1052 
-20.3254 19.6402 -13.0951 -20.1395 19.6388 -13.2831 -20.1166 19.837 -13.2927 
-20.0001 19.6354 -13.4726 -19.0344 19.8154 -14.2064 -19.1029 19.6354 -14.1512 
-17.9294 20.151 -14.9378 -17.2656 19.8482 -15.2593 -16.5002 20.0537 -15.5345 
-16.1023 19.8184 -15.6018 -16.3029 19.4354 -15.5774 -13.8958 19.2394 -14.5021 
-13.6146 19.4354 -14.0726 -13.4856 19.4351 -13.684 -22.2937 19.8319 -10.8478 
-22.2227 19.6354 -11.0726 -22.2996 19.5875 -10.8705 -22.1016 19.9065 -11.3392 
-22.0982 20.5562 -11.4501 -21.7359 20.7952 -11.9013 -21.1446 20.6957 -12.4528 
-20.6778 20.1503 -12.8445 -19.919 19.8547 -13.5293 -19.2634 19.6394 -14.0668 
-19.3029 19.559 -14.0726 -19.2837 19.8552 -14.0404 -18.6913 19.9626 -14.4641 
-18.0615 20.4336 -14.8634 -17.6905 20.2326 -15.0577 -16.7151 20.1385 -15.4709 
-16.2998 20.1346 -15.5722 -16.1029 19.4354 -15.6122 -16.3029 19.2597 -15.6726 
-15.9043 19.2743 -15.6735 -14.924 19.4369 -15.4538 -14.8875 19.237 -15.4696 
-15.148 19.2344 -15.5696 -14.7029 19.2354 -15.341 -14.6561 19.4367 -15.2899 
-14.6139 19.2354 -15.2726 -13.8945 19.4337 -14.5173 -14.0996 19.2339 -14.7583 
-13.7136 19.4543 -14.2596 -13.492 19.6093 -13.8646 -13.4326 19.5866 -13.7344 
-13.4092 19.2328 -13.4471 -13.2128 19.2354 -13.0726 -13.3029 19.1686 -13.2726 
-12.9144 19.0331 -12.6281 -13.0042 19.2369 -12.658 -12.8337 19.0354 -12.4726 
-12.7804 19.2354 -12.2726 -12.7002 19.0386 -12.2756 -22.3523 19.6354 -10.6726 
-22.2231 19.9258 -11.0666 -22.1311 20.2418 -11.3337 -21.9084 20.8023 -11.7129 
-21.3511 20.6663 -12.2677 -20.9034 20.7398 -12.6816 -20.7351 20.9236 -12.8436 
-20.2988 20.2131 -13.1729 -20.1231 20.0309 -13.3026 -19.8418 19.6396 -13.6647 
-19.5029 19.6354 -13.9457 -19.2853 20.0412 -14.0307 -18.935 20.2538 -14.2874 
-18.4275 20.3051 -14.6319 -17.7473 20.5336 -15.0348 -17.3011 20.5768 -15.2416 
-16.8987 20.1879 -15.4084 -16.5034 20.4909 -15.5148 -16.2982 20.7788 -15.5477 
-16.0308 20.231 -15.6036 -15.9029 19.4354 -15.6283 -15.1425 19.4334 -15.5225 
-14.4814 19.4445 -15.1461 -14.5029 19.2354 -15.1675 -14.4049 19.2354 -15.0726 
-14.1137 19.4339 -14.785 -13.5561 19.6354 -14.0726 -13.4089 19.4354 -13.4726 
-13.1753 19.4304 -13.0055 -13.103 19.2337 -12.8354 -13.1029 19.1508 -12.8726 
-12.6423 19.2388 -12.0801 -22.357 19.8255 -10.5006 -22.4111 19.6354 -10.4726 
-22.3062 20.0386 -10.8191 -22.2265 20.6255 -11.2533 -22.2086 20.8385 -11.3297 
-21.8906 21.0317 -11.802 -21.5591 20.7503 -12.0728 -21.0545 21.0519 -12.5901 
-20.5105 20.682 -13.0246 -20.1061 20.235 -13.3232 -19.7484 19.8411 -13.7092 
-19.6846 19.638 -13.8205 -19.5338 19.836 -13.8801 -19.2558 20.2303 -14.0496 
-18.6835 20.5449 -14.4718 -18.4089 20.6352 -14.6519 -18.0949 20.9147 -14.8269 
-16.9103 20.9832 -15.3853 -16.6154 20.8369 -15.4836 -16.1085 20.6348 -15.5741 
-15.8717 19.7489 -15.6185 -15.7029 19.4354 -15.6195 -15.5489 19.4333 -15.6043 
-15.0936 20.1767 -15.5232 -14.7098 19.6735 -15.346 -14.5529 19.6395 -15.2352 
-13.9571 19.6255 -14.6584 -13.801 19.6354 -14.4726 -13.6872 19.6327 -14.3218 
-13.4999 19.8439 -14.1611 -13.3197 19.8978 -13.8471 -13.3029 19.6467 -13.4726 
-13.3032 19.4352 -13.2575 -12.9302 19.4403 -12.5869 -12.7265 19.436 -12.255 
-22.3914 19.8447 -10.2293 -22.4585 19.6354 -10.2726 -22.3241 20.3129 -10.8629 
-22.2592 20.2593 -11.0675 -22.0267 21.0443 -11.6482 -21.6348 21.0404 -12.0452 
-21.4025 21.044 -12.2793 -20.4982 21.1094 -13.0716 -20.2335 20.5532 -13.2539 
-19.9389 20.2347 -13.4783 -19.749 20.217 -13.6637 -19.4767 20.2405 -13.8696 
-19.2675 20.477 -14.0527 -18.8734 20.7906 -14.3392 -17.9114 21.0273 -14.9173 
-17.6407 21.0233 -15.0794 -16.1029 20.8354 -15.5778 -15.9107 20.633 -15.5847 
-15.683 20.057 -15.6145 -15.3114 19.655 -15.5703 -14.9052 19.745 -15.4551 
-14.3028 19.6357 -15.027 -14.1473 19.6397 -14.8727 -13.3029 19.8354 -13.7538 
-13.1447 19.8354 -13.4726 -12.4936 19.439 -11.9416 -12.5029 19.1293 -11.8726 
-12.5065 19.0369 -12.0093 -12.3969 19.0354 -11.6726 -12.3046 19.247 -11.4461 
-12.3044 19.024 -11.4682 -12.2521 19.0354 -11.2726 -22.4256 19.8354 -9.87259 
-22.4696 19.6376 -10.046 -22.4458 19.6295 -9.5732 -22.3654 20.0234 -10.4166 
-22.3699 20.2326 -10.5898 -22.3027 20.5807 -11.0779 -22.3297 20.8475 -11.1346 
-22.3025 21.0374 -11.2718 -22.1373 21.2522 -11.6265 -21.5509 21.2581 -12.2051 
-21.1793 21.234 -12.5265 -20.7452 21.3061 -12.8976 -20.2869 20.9249 -13.2232 
-20.0873 20.4876 -13.3566 -19.4943 20.4598 -13.8533 -19.2435 20.8062 -14.0729 
-18.7101 21.142 -14.4534 -18.4243 21.1892 -14.6321 -17.9052 21.2285 -14.9223 
-17.3215 21.0255 -15.2252 -16.5537 21.0615 -15.5126 -16.222 21.0274 -15.5862 
-15.4939 19.9359 -15.6029 -15.3087 20.0766 -15.5753 -14.8836 20.1409 -15.4515 
-14.7073 20.1956 -15.3735 -14.5266 20.0174 -15.2484 -14.0922 19.8732 -14.8614 
-13.9031 19.8374 -14.6724 -13.7032 19.8499 -14.4706 -13.5336 19.8755 -14.265 
-13.3141 20.0543 -14.0583 -13.0678 20.0501 -13.6946 -12.903 19.8355 -13.0724 
-13.0152 19.5701 -12.901 -12.6931 19.6375 -12.4821 -12.5775 19.5247 -12.1434 
-12.5038 19.2431 -11.8575 -12.2373 19.2354 -11.2726 -22.4054 19.8422 -9.43656 
-22.3995 19.6354 -9.27259 -22.4289 19.8354 -9.67259 -22.428 20.0328 -9.86488 
-22.4124 20.497 -10.6615 -21.903 21.2347 -11.8726 -20.9625 21.2384 -12.7007 
-20.3032 21.3981 -13.2618 -19.9265 20.4359 -13.482 -19.0075 20.9678 -14.2574 
-19.0488 21.223 -14.2341 -18.0986 21.3786 -14.8384 -17.5785 21.2457 -15.122 
-17.0918 21.2582 -15.3366 -16.8411 21.2322 -15.4453 -15.9052 20.8693 -15.6016 
-15.7029 20.4354 -15.5933 -15.4757 20.4333 -15.5819 -15.2047 20.428 -15.5481 
-14.893 20.3873 -15.472 -14.2902 20.008 -15.0616 -13.432 20.0354 -14.2726 
-13.0158 20.2354 -13.8726 -12.8964 20 -13.3223 -12.9029 19.5786 -12.6726 
-12.5029 19.713 -12.2726 -12.4907 19.606 -12.075 -12.3083 19.4339 -11.5977 
-12.1688 19.4354 -11.2726 -12.2364 19.0354 -11.0726 -12.2269 19.0354 -10.8726 
-12.1537 18.8354 -10.8726 -12.1653 18.8354 -10.6726 -12.2155 19.0354 -10.6726 
-12.1947 18.8357 -10.4281 -12.2384 19.0354 -10.2726 -12.2516 18.8354 -10.0726 
-22.3548 19.6354 -9.07259 -22.4237 20.4271 -10.46 -22.3962 20.6451 -10.868 
-22.4558 21.0733 -11.0613 -22.4698 21.3939 -11.2911 -22.1261 21.4221 -11.7451 
-21.8647 21.448 -12.0262 -21.5851 21.3558 -12.2185 -21.2147 21.4188 -12.5581 
-20.8408 21.4915 -12.8726 -20.568 21.6293 -13.0993 -19.9965 21.3615 -13.4936 
-20.0305 20.8383 -13.4244 -19.8887 20.6579 -13.5237 -19.7174 20.4351 -13.6688 
-19.6538 20.8956 -13.7464 -19.3135 21.1341 -14.0366 -19.0454 21.4399 -14.2526 
-18.4919 21.4328 -14.6112 -17.9029 21.4354 -14.953 -17.3037 21.3016 -15.258 
-16.5013 21.2544 -15.5683 -16.0685 21.271 -15.677 -15.5949 20.6328 -15.5905 
-14.5037 20.2392 -15.2724 -14.2677 20.251 -15.12 -14.0953 20.0358 -14.9042 
-13.8337 20.02 -14.6916 -13.5304 20.0602 -14.4412 -13.2916 20.2485 -14.3306 
-12.9051 20.2474 -13.7711 -12.7175 20.0151 -13.1324 -12.5173 19.9643 -12.6975 
-12.5013 19.8321 -12.4708 -12.3333 19.6541 -11.8675 -12.2569 19.6098 -11.6827 
-12.1901 19.2354 -11.0726 -12.2186 19.0354 -10.4726 -12.2877 19.058 -9.98977 
-12.3063 18.8381 -9.84293 -22.3382 19.8354 -9.07259 -22.4205 20.039 -9.44415 
-22.4471 20.1694 -9.66306 -22.4482 20.2544 -9.88086 -22.5015 20.6599 -10.3478 
-22.5763 20.9991 -10.7031 -22.5092 20.994 -10.8952 -22.3331 21.4349 -11.5102 
-20.2019 21.6793 -13.3891 -18.2154 21.6024 -14.8195 -17.5514 21.4202 -15.1659 
-17.2638 21.6889 -15.3699 -16.9145 21.5778 -15.498 -16.3206 21.3144 -15.6397 
-15.6724 21.2022 -15.6977 -15.7029 20.8354 -15.6153 -15.2044 20.6341 -15.5701 
-14.8239 20.7001 -15.5188 -14.7029 20.4354 -15.4173 -14.344 20.4281 -15.2376 
-13.7029 20.0354 -14.5954 -13.3673 20.2943 -14.4813 -12.968 20.4009 -14.1073 
-12.7088 20.061 -13.2352 -12.7168 19.9037 -12.9009 -12.306 19.8763 -12.2664 
-12.3173 19.8053 -12.1132 -12.1119 19.649 -11.3822 -12.1028 19.4352 -11.0729 
-12.1584 19.2325 -10.7559 -12.1537 19.2354 -10.4726 -12.1875 19.2243 -10.2473 
-12.3498 19.0354 -9.67259 -22.3028 19.6338 -8.85187 -22.3557 20.0354 -9.07259 
-22.489 20.4814 -9.89658 -22.6867 21.4029 -10.8799 -22.6801 21.5642 -11.0654 
-22.4624 21.664 -11.4727 -22.3027 21.6383 -11.6699 -22.107 21.6256 -11.873 
-21.865 21.6151 -12.099 -21.4872 21.7979 -12.4864 -21.2732 21.6966 -12.6146 
-20.5543 21.7987 -13.1692 -19.7229 21.6318 -13.7706 -19.8045 21.0296 -13.6373 
-19.4399 21.4385 -13.9637 -18.6969 21.6336 -14.5134 -18.522 21.6947 -14.6522 
-17.7654 21.6189 -15.0968 -17.5061 21.6904 -15.2612 -16.5976 21.6416 -15.6427 
-16.2946 21.7289 -15.7624 -15.9251 21.6291 -15.8111 -15.5064 20.8688 -15.63 
-14.6168 20.7274 -15.472 -14.0004 20.2752 -14.9377 -13.6943 20.2295 -14.7001 
[...]
CELL_DATA 9994
FIELD FieldData 1
Area 1 9994 double
0.050101751165 0.029211051331 0.019454398836 0.026738592976 0.020560737915 0.030115072544 0.025366258815 0.038647522369 0.050290962557 
0.071983173338 0.035001084358 0.046484638294 0.01513689418 0.025859169854 0.037706817944 0.044952716828 0.049932471662 0.032942164618 
0.057770983741 0.019877285508 0.077113490788 0.050610107188 0.034760669784 0.01134271594 0.048496993583 0.035228219226 0.019774953242 
0.053684402335 0.053947542741 0.047292917983 0.030312701272 0.019383068051 0.02471457241 0.0094342518977 0.030689784275 0.010345490484 
0.021840651833 0.03329291144 0.043722299184 0.061126081199 0.057327664428 0.066567118175 0.10389614105 0.098492568434 0.014234280091 
0.032045340284 0.025407887243 0.0233893667 0.031552339668 0.07317811864 0.044450570485 0.075421154207 0.055467959881 0.040475691333 
0.042533823161 0.037655214755 0.021378000969 0.065298355614 0.038088354317 0.014792504004 0.020012206236 0.021449957545 0.019332005652 
0.026915106761 0.040105972895 0.021683547785 0.078545208346 0.077639348559 0.048905843113 0.063698447181 0.10709924823 0.053663152548 
0.046140787157 0.026597029189 0.033200468887 0.0076663783726 0.028719616265 0.058888515138 0.063475688546 0.095036156471 0.045798782195 
0.05581591671 0.072902582351 0.045491306912 0.052910018938 0.055717406302 0.0630123971 0.10119890041 0.038888164797 0.0202187505 
0.035690360168 0.028208072712 0.022795581812 0.011319978002 0.031884840795 0.030312210247 0.023094919663 0.019114293812 0.016092959422 
0.034267056277 0.014109451817 0.018846599072 0.024835832931 0.024565259803 0.033653311585 0.043270425718 0.027095625692 0.046537201248 
0.078647607575 0.066386774456 0.063340109322 0.046361092853 0.052623444513 0.08386271235 0.1246362291 0.079087086911 0.093169657531 
0.051349803238 0.029919302574 0.027303768124 0.01116234057 0.019556882615 0.027734411405 0.084641037292 0.067450783784 0.08407878908 
0.058163601237 0.042712626288 0.16370791353 0.10566273184 0.05195886187 0.048682647931 0.065833011534 0.052445874431 0.038436248915 
0.016784358191 0.023280839895 0.031757708983 0.022998108879 0.015984022571 0.01426285461 0.034609012387 0.034602513063 0.022111064884 
0.022823748777 0.013034425475 0.018629012302 0.022803556829 0.041119157428 0.011056178701 0.008567741455 0.046333089925 0.024686580478 
0.020337775982 0.03439845132 0.025234166676 0.050002178504 0.041160636758 0.065835518413 0.030182607544 0.037878845431 0.042610259461 
0.047423649904 0.056051561683 0.055102870121 0.10626019794 0.12581665372 0.021298674132 0.033476073495 0.026043969846 0.022690516764 
0.022416343822 0.029073975133 0.027705571912 0.032898176826 0.086055442146 0.089206824031 0.08918917342 0.069793229108 0.088474334684 
0.075334471897 0.15101792794 0.076680516693 0.057873992266 0.046455775219 0.06164065946 0.058632529919 0.050175703108 0.037322054056 
0.016744831735 0.042288077608 0.085042967008 0.037311244027 0.022649626004 0.053323156636 0.043836077271 0.033909612687 0.031855628666 
0.026239990248 0.023486085286 0.02420828958 0.03267812693 0.024319807719 0.02915884397 0.025552203153 0.020719754604 0.04583141679 
0.024013072365 0.02285233669 0.027204163473 0.036605093643 0.038082152085 0.049383337011 0.056207962471 0.027765440541 0.058118608874 
0.024501977069 0.042967398198 0.034328346551 0.052981482356 0.088784873156 0.05260635418 0.066570095812 0.067814555346 0.024652879552 
0.043409439056 0.046519045799 0.028305646111 0.03092416924 0.086742278082 0.027122121236 0.049393064054 0.071994595255 0.053012848961 
0.093090102061 0.061812660311 0.11791702156 0.16950836718 0.11581737581 0.052627615867 0.019656313798 0.04000295968 0.070037446481 
0.031392997262 0.048110833486 0.04602307798 0.070461923425 0.034611985144 0.035056610642 0.021500296339 0.031721618088 0.051436300754 
0.029250644182 0.024565928865 0.017697740472 0.032094412965 0.055803552784 0.014049111871 0.039760057353 0.027775725564 0.065595430793 
0.048930925562 0.039802562717 0.039457318407 0.020471121702 0.017827550628 0.025147918488 0.022458199602 0.048263624775 0.024958033588 
0.026248402024 0.040910199781 0.036538941574 0.035718144676 0.031204715285 0.024955940853 0.047748158044 0.021949417749 0.039055020495 
0.048304587663 0.043819190004 0.080314591875 0.060686717449 0.05924218969 0.062964921117 0.04054139001 0.028843636466 0.050066760099 
0.051704654837 0.037033594363 0.031121639526 0.0373410894 0.070476990333 0.1230080634 0.065149861166 0.099489751569 0.10284925421 
0.020129692887 0.077556864666 0.078755943998 0.098486879487 0.039895761332 0.038367474454 0.022439512798 0.019878812821 0.080470700127 
0.055610669658 0.050922543742 0.054259188575 0.046591114049 0.044309166011 0.058086817214 0.049963447724 0.06167034763 0.02310315845 
0.034119998449 0.026315090856 0.021599188179 0.016563659542 0.038818723181 0.018273034855 0.03770489488 0.031310234488 0.11351046074 
0.039000318519 0.048297237155 0.019942165188 0.026744690318 0.014950329906 0.013530144882 0.048024810741 0.018683843226 0.032064307069 
0.020651322866 0.037810775372 0.050515907739 0.041697804566 0.034921160817 0.034759436002 0.025015868488 0.023096776256 0.051951410055 
0.036223288992 0.050806182815 0.036648479212 0.051661690044 0.025920283633 0.022725691205 0.070486044718 0.062730289727 0.031201314322 
0.023752453148 0.020827867827 0.026811811321 0.037707341339 0.049437560154 0.039284452286 0.078971179566 0.093929623457 0.08919596666 
0.049010984828 0.031765414952 0.039002159071 0.056901827584 0.04427643056 0.043802331803 0.021229197621 0.023454353781 0.037412156138 
0.04832799096 0.03935913289 0.033508060258 0.027117199683 0.037578487982 0.04295474199 0.056271263755 0.040972094781 0.036374986878 
0.029545999653 0.031548356722 0.032474205073 0.010709213602 0.02775429 0.051762638744 0.042872637054 0.044762035502 0.049733704972 
0.035079071527 0.019560099897 0.023843488464 0.042793613293 0.023847080458 0.014476051125 0.039252465357 0.045317613013 0.019674458444 
0.020115382065 0.021317478743 0.021327306731 0.025376786947 0.036130710788 0.02141210905 0.024954873021 0.019746292981 0.035412589273 
0.05927073296 0.024763288564 0.035642308533 0.038246231958 0.032469604964 0.028093093176 0.083449010159 0.032218123964 0.054176315002 
0.025103135467 0.02652126193 0.03093149969 0.081335083612 0.0914678515 0.06097317965 0.024083418286 0.030687984331 0.031320532837 
0.10577286552 0.055424269601 0.015847773847 0.044382593427 0.059452392349 0.053585962941 0.023156420839 0.041944312509 0.041602810453 
0.031928843255 0.03534970612 0.034666978195 0.03463565565 0.053178021068 0.037408657153 0.031193522516 0.04308831116 0.045145077561 
0.048303323137 0.03800181475 0.02425253187 0.025260780989 0.037599097041 0.021147017761 0.026421328934 0.027216373979 0.030470097502 
0.018500505877 0.031829978893 0.066094701797 0.019091474135 0.052027917807 0.032402759804 0.040924124588 0.061630862864 0.029780817554 
0.015157143116 0.026631003623 0.038081687653 0.034637014706 0.021660444173 0.02106511935 0.020551987844 0.020649951551 0.020128263611 
0.020270783364 0.031112992264 0.026222858414 0.037143073993 0.023439504665 0.033154626006 0.079548390855 0.069340241581 0.028590754693 
0.054189075881 0.05195967641 0.025755227297 0.048885624224 0.030926645858 0.029337198898 0.041811978344 0.016519391085 0.04810017383 
0.05599716789 0.039859783926 0.062307608447 0.057472762517 0.088434563817 0.038170440332 0.031161677723 0.035041230902 0.093248646628 
0.082598663237 0.044236556094 0.035285396937 0.080349297933 0.048781915401 0.028942588557 0.042961212832 0.033314377686 0.025881431078 
0.046615618397 0.047797189289 0.064439120881 0.031291491589 0.035701555848 0.076085719137 0.019028757353 0.022566787606 0.028292939449 
0.052286206218 0.02431745615 0.018599472995 0.031451668972 0.031604628137 0.027673059304 0.017662582217 0.024970106904 0.028300035936 
0.022522348061 0.061106025768 0.020309444909 0.054852738169 0.011960403146 0.029568030269 0.056825547986 0.063676455497 0.034511537431 
0.028101880747 0.02688692539 0.032244020025 0.027301910813 0.033460738115 0.04144073995 0.022750511503 0.032799006865 0.020688044196 
0.02102786724 0.019718674195 0.028051749383 0.033901362332 0.022753715785 0.037135559997 0.037195151006 0.03738043686 0.0235638154 
0.06578626235 0.065374347086 0.087132272159 0.03737110294 0.04150283373 0.069483737886 0.033741703811 0.035214056155 0.040221292862 
0.032042233824 0.10833229172 0.071018295037 0.027591757036 0.039705618519 0.093043589367 0.074479898134 0.049809441059 0.085453165403 
0.0746381734 0.066128324299 0.046331910467 0.048760211988 0.040587288019 0.041571119065 0.052737489451 0.073903323747 0.071820234375 
0.040888123277 0.055875922521 0.080318300706 0.038692930653 0.021971028808 0.039082730076 0.039873362642 0.033086029091 0.028339579451 
0.048782580238 0.026878309924 0.040219795026 0.043262326658 0.017759419247 0.02477687641 0.021450856795 0.023270091551 0.035267438539 
0.049934473595 0.051436330079 0.033071113205 0.013651888567 0.033128826744 0.020848564912 0.041290590959 0.036307008913 0.02066804325 
0.03601615852 0.030124072156 0.041090758982 0.02430043152 0.02240228065 0.029111989186 0.029244341176 0.023877300511 0.045916226042 
0.032744225632 0.017362719078 0.030868258975 0.029804829134 0.035519190903 0.024894958502 0.024508266614 0.041410192392 0.02589368507 
0.04459620393 0.053524492083 0.049184556131 0.046875500867 0.029329755718 0.031225507318 0.029292836703 0.10150761559 0.035182062229 
0.1233461478 0.10800469071 0.035143540265 0.060965334938 0.026864517945 0.054710833318 0.038700897875 0.070894214909 0.051895189375 
0.045504105804 0.029782592421 0.062896296177 0.11312698108 0.039292579329 0.019509544626 0.090701114256 0.070066479243 0.066863510003 
0.0384505609 0.033956173043 0.052990072856 0.036422406918 0.024429392353 0.044771305296 0.034536023609 0.05177037769 0.028180978214 
0.055260558096 0.03856901048 0.025254182325 0.046621749945 0.022713274638 0.018938231052 0.029862940869 0.03440529092 0.048426140861 
0.0346492888 0.027222958674 0.032574240244 0.061451185652 0.018486337104 0.013711057119 0.026013758048 0.019008362252 0.046906646244 
0.034737307493 0.064060534188 0.056820963376 0.035740724356 0.017737208327 0.023652155287 0.018885281659 0.067415824191 0.035307028756 
0.020906545207 0.028847154097 0.036404426046 0.057681069074 0.030795706225 0.068267916976 0.070545284771 0.052165794872 0.0403413963 
0.056783010786 0.045508755136 0.058637193176 0.043296638148 0.02431677426 0.021314839089 0.054060484043 0.034819154744 0.029476484989 
0.032662616304 0.053789361102 0.037336848928 0.06876243128 0.059144235503 0.062142150553 0.056292347927 0.021837757831 0.046030111898 
0.087029613665 0.041269672766 0.068043313028 0.043400828004 0.033346957553 0.035668369165 0.090217679875 0.041212139268 0.03025324087 
0.049119312366 0.081881866307 0.062984314811 0.060904673813 0.03775400349 0.02869819564 0.037018354724 0.044121520891 0.035587700505 
0.039578941109 0.029676674089 0.062606584045 0.090362193544 0.03981869427 0.031782757652 0.0300770708 0.02902462047 0.050043387238 
0.014182886078 0.033548383193 0.053137955615 0.0329588139 0.037552780714 0.01922975567 0.030933181603 0.058784502027 0.048190123759 
0.018810501464 0.030572776072 0.076587374016 0.037415029274 0.066977623223 0.03385582524 0.039112978983 0.036625594616 0.015408481534 
0.033522571731 0.033338523098 0.026876787448 0.0361191621 0.021360095058 0.020744871469 0.035530471561 0.043462381356 0.069119687555 
0.052219901841 0.063842416985 0.049543813 0.041471520191 0.055523990443 0.050498913729 0.070011288295 0.060858847785 0.044870383137 
0.024768367161 0.028303882147 0.032778826625 0.059445538852 0.055803728057 0.034762810343 0.035975379719 0.066448215487 0.044167312682 
0.08798677301 0.0476001821 0.055771014271 0.074685442261 0.040933506974 0.070899933182 0.039280600619 0.027114565155 0.035078213312 
0.079890032686 0.026671401797 0.03062968696 0.091185933253 0.033653421045 0.083978126059 0.050114706391 0.044926538365 0.046083968296 
0.07341410467 0.068408778288 0.042437180346 0.057601199251 0.054681320651 0.024904333358 0.098216726999 0.10779148693 0.085390867008 
0.067971978541 0.037029480419 0.09774564473 0.11184567511 0.031980739475 0.04345017124 0.028892911573 0.034429324307 0.025898786377 
0.045040477594 0.046230745211 0.056484163425 0.033409401306 0.049375801342 0.059896607741 0.073620386944 0.019010594276 0.045763266508 
0.056920213064 0.030446872801 0.072448904725 0.063788100015 0.055771086541 0.027441499063 0.022678661088 0.036960161695 0.015046271875 
0.029188669423 0.068779127959 0.061869349931 0.048361420015 0.031780323795 0.042000726787 0.020204774775 0.032896019072 0.053445768867 
0.080621925472 0.12377801959 0.023362146586 0.032112302614 0.039251779543 0.03932576541 0.033598959506 0.0411353747 0.023625990381 
0.040268377665 0.069980612138 0.091897031896 0.075341033178 0.057796044477 0.027628351149 0.040948728612 0.053842001187 0.066689456219 
0.089124284291 0.037586169067 0.053142759223 0.061256503638 0.062977588692 0.064867610372 0.041629592544 0.054572983249 0.040366539083 
0.058941069741 0.048825375918 0.065304275164 0.036928791828 0.048198570184 0.050828862237 0.054388351509 0.064262259224 0.060100710347 
0.057641997144 0.048787705177 0.058577191464 0.081701619858 0.053072148223 0.053109573116 0.047149334868 0.042401171337 0.058131072954 
0.041865856083 0.034476898955 0.053158101275 0.035147008443 0.033665900366 0.020838115038 0.047397228094 0.037609930457 0.058006018804 
0.031737240596 0.048476753845 0.055702834294 0.034297462545 0.06223998157 0.061700486518 0.048293115812 0.045309875669 0.087310836954 
0.062930807028 0.032942139679 0.024815009948 0.035212051744 0.03395467006 0.036992412505 0.026401691889 0.017157871091 0.026188820652 
0.050319664505 0.041756272018 0.043122738741 0.027542757608 0.058984471363 0.023183228008 0.027836936514 0.036524255131 0.06268778741 
0.058889949524 0.10391372424 0.063067377494 0.041317348364 0.040489278507 0.02979714236 0.026423692892 0.023847745061 0.037364063378 
0.034793129091 0.068124857219 0.041496743131 0.06680647092 0.074324789359 0.079650128932 0.042362137915 0.038777088999 0.1003182833 
0.039237878638 0.037427875028 0.044669994941 0.084145409044 0.059700734991 0.063334342999 0.028964731756 0.066492358728 0.075889522724 
0.050908483255 0.044190898551 0.044948915283 0.042370729524 0.10272390132 0.10526406927 0.050785170971 0.056455386252 0.033826679014 
0.06039613032 0.080879761467 0.04909261575 0.070598077359 0.044431102984 0.061501773279 0.069409177862 0.045446012616 0.049682652622 
0.038665532594 0.041512038168 0.055017169123 0.038034882592 0.059014197069 0.031286838385 0.060013937263 0.036230694599 0.033805363086 
0.030527521355 0.064848069924 0.098948251059 0.03300606827 0.036315164668 0.048851058599 0.027484856106 0.023003538571 0.042328462263 
0.049548639174 0.035417701495 0.036955000991 0.030472021825 0.046755646791 0.035176542423 0.021822139338 0.016927487643 0.038119724358 
0.06077139409 0.043683705631 0.049576290268 0.040728777669 0.043499650724 0.039372927015 0.049730648533 0.066550967428 0.025655678942 
0.025795917914 0.035074165414 0.082509783934 0.043736151015 0.039746158615 0.05682401019 0.049866519439 0.04266603366 0.091018796439 
0.063921360531 0.059319873451 0.065013514674 0.097063677907 0.077107789658 0.12039255078 0.038812368484 0.063242420849 0.10005790386 
0.090145676033 0.075644074568 0.048164635511 0.061350237098 0.039326496427 0.08831067024 0.10252006537 0.043690180195 0.047607100003 
0.13839663993 0.089075939231 0.11240484292 0.086488556788 0.07395220531 0.061668296808 0.056875614026 0.045666005236 0.03885559971 
0.059436237979 0.069107598226 0.059751651933 0.041678965711 0.046384033411 0.065659317405 0.072071100161 0.040984904152 0.043544938658 
0.063267071233 0.03660401478 0.033878728852 0.036445472554 0.03115122253 0.032683423154 0.053230465096 0.035487389999 0.026969040504 
0.032152330351 0.027174095012 0.027736730861 0.045421132984 0.057174970637 0.028066195349 0.054523367351 0.041450189683 0.055802430509 
0.086756923424 0.028068997834 0.07371972335 0.05712437692 0.034653989032 0.037058125121 0.044437109445 0.040630138385 0.041995646623 
0.033967039918 0.02624202555 0.13206743481 0.053150793344 0.046586999188 0.046198826642 0.0420421963 0.095584022154 0.0581785915 
0.048238874638 0.035611189169 0.030617423057 0.064921628131 0.046613596669 0.054677022392 0.044613216683 0.055414685454 0.06973801821 
0.041491450072 0.065248845771 0.12068693084 0.058990205443 0.065996668964 0.076885178756 0.12537583399 0.076819830915 0.069882771992 
0.1187970235 0.044553985847 0.075978844563 0.059690138411 0.053751063534 0.061430530811 0.066419870643 0.039375506758 0.055522028604 
0.056848920199 0.10460726184 0.12523604397 0.073349684485 0.035105639884 0.032453168063 0.074383466009 0.093011999363 0.068054299073 
0.045107256436 0.04529520142 0.040568275174 0.044972738172 0.03407814725 0.046528110177 0.02877648348 0.033654215477 0.064594474452 
0.052122664007 0.0390452531 0.049661136616 0.050799979298 0.027641287369 0.027668480698 0.030387157102 0.05420846565 0.031245652247 
0.035264049642 0.030094369967 0.033846221252 0.058281779039 0.028412615664 0.026755867027 0.04705453031 0.0169317876 0.051751805441 
0.027637816284 0.024160263175 0.040843146507 0.039560819671 0.054702252541 0.073050822468 0.069754525457 0.059727201498 0.056256046228 
0.074665668092 0.030587591083 0.041645726848 0.043218100414 0.049875394869 0.015211933894 0.026524189018 0.016050733609 0.037530654902 
0.071361655325 0.05809872975 0.053729509765 0.071443777666 0.065556244652 0.056925097666 0.03149465318 0.035254804482 0.03131892002 
0.066755797282 0.091486428671 0.030574948244 0.051821288948 0.056313994743 0.045214992254 0.068125151689 0.044902041327 0.070779110968 
0.042520782067 0.025420885777 0.069455216485 0.064022693301 0.071817502163 0.15559175243 0.030348139284 0.074969076565 0.048742849825 
0.12289324165 0.049918145533 0.038185662337 0.046214962475 0.051319849109 0.087712545937 0.029897515276 0.028611566413 0.12764615471 
0.04101981554 0.054334929941 0.053890841545 0.020819870574 0.028499987963 0.065151232076 0.039182990464 0.029645366422 0.035426355141 
0.041230860219 0.062300757119 0.036871291637 0.034217983342 0.027734447225 0.079150453235 0.062949048321 0.047830581411 0.047972482705 
0.04142699152 0.066917216117 0.052553726937 0.03896743478 0.031399032178 0.025175166576 0.03005048038 0.024798982841 0.045861062143 
0.017892718936 0.044775802943 0.026402212492 0.11763460221 0.033847826948 0.023172177144 0.043920681843 0.037681075136 0.029501508762 
0.020537326575 0.067069873107 0.04342324734 0.042977183841 0.071918382359 0.019964078881 0.06518435267 0.047410491107 0.04197046288 
0.061157530193 0.035624709465 0.040937032081 0.032268656141 0.035780169821 0.060169717458 0.0087446423771 0.025266108178 0.038602687428 
0.052923187192 0.014860384091 0.035626001174 0.079770881617 0.04305842209 0.048655921369 0.048730985885 0.1125876209 0.054346970583 
0.043037197915 0.05564211089 0.033578056671 0.041808396282 0.05938742404 0.057686730822 0.036152850297 0.030886238375 0.071860252176 
0.048717882057 0.063490741793 0.049986188245 0.067722338813 0.1547795583 0.063579239418 0.081706353321 0.044810221613 0.093575995731 
0.06946396106 0.089849795195 0.051229180212 0.05616045112 0.097796990506 0.064933004414 0.094500619596 0.070178560847 0.056403083147 
0.11413704063 0.14888541411 0.040041243828 0.097363375771 0.07608427884 0.0429862304 0.054727955205 0.064406029241 0.071046572216 
0.055695426691 0.059539466507 0.025940854452 0.024375627399 0.038587568063 0.032806240717 0.044501637797 0.032876408187 0.042637111141 
0.071593790283 0.090737665334 0.067652741431 0.11584977362 0.051906090397 0.053137188518 0.070502960919 0.058093246286 0.057187842479 
0.035909211063 0.047668168821 0.030429739838 0.025745251047 0.0552698599 0.060838391616 0.054517368316 0.038349918602 0.042917709594 