# vtk DataFile Version 4.2
vtk output
ASCII
DATASET POLYDATA
POINTS 5065 float
-21.7015 19.9835 -11.8744 -21.5072 19.6359 -12.0699 -21.7152 19.6345 -11.872 
-21.3159 19.8346 -12.2408 -21.3066 19.6275 -12.2688 -20.9727 19.6362 -12.5685 
-20.9579 19.554 -12.6153 -18.1047 19.6365 -14.8338 -18.0823 19.4258 -14.8693 
-18.3066 19.4346 -14.7499 -17.9066 19.4346 -14.948 -17.7244 19.6531 -15.0254 
-17.6894 19.4067 -15.0704 -17.5066 19.4346 -15.1491 -21.8903 19.8915 -11.653 
-21.9047 19.6146 -11.6682 -21.062 19.8398 -12.4616 -20.7066 19.6346 -12.7991 
-20.7066 19.4903 -12.87 -18.4192 19.6395 -14.6466 -17.2919 19.6311 -15.2356 
-22.0358 19.6346 -11.47 -21.9136 20.2841 -11.6565 -21.5204 19.9853 -12.0589 
-21.2943 20.2932 -12.2905 -20.6874 19.8313 -12.7932 -20.5934 19.6419 -12.8892 
-18.7352 19.442 -14.459 -18.8227 19.6297 -14.35 -18.472 19.4322 -14.66 
-18.3956 19.9324 -14.6731 -18.0986 19.89 -14.8537 -17.603 19.8435 -15.087 
-17.2241 19.4336 -15.2701 -16.9021 19.6518 -15.3991 -16.7397 19.4352 -15.4715 
-16.9066 19.4346 -15.4087 -16.7042 19.6348 -15.4722 -16.4998 19.4364 -15.5327 
-13.7192 19.2345 -14.2452 -13.6225 19.2346 -14.07 -13.7066 19.1431 -14.27 
-13.541 19.4346 -13.87 -13.5167 19.1771 -13.8497 -13.5075 19.2369 -13.7757 
-22.0251 19.9307 -11.4748 -22.1071 19.6348 -11.3409 -21.6774 20.3494 -11.902 
-21.4925 20.4291 -12.1059 -20.9257 20.2286 -12.6253 -20.3129 19.8315 -13.1027 
-20.3292 19.6395 -13.0926 -20.1433 19.6381 -13.2805 -20.1204 19.8362 -13.2902 
-20.0039 19.6346 -13.47 -19.0382 19.8146 -14.2038 -19.1066 19.6346 -14.1486 
-17.9331 20.1502 -14.9353 -17.2694 19.8474 -15.2568 -16.5039 20.053 -15.532 
-16.1061 19.8176 -15.5993 -16.3066 19.4346 -15.5748 -13.8996 19.2386 -14.4995 
-13.6184 19.4346 -14.07 -13.4894 19.4344 -13.6814 -22.2974 19.8311 -10.8453 
-22.2265 19.6346 -11.07 -22.3034 19.5868 -10.868 -22.1054 19.9057 -11.3366 
-22.102 20.5554 -11.4475 -21.7396 20.7944 -11.8987 -21.1484 20.6949 -12.4502 
-20.6816 20.1495 -12.842 -19.9228 19.854 -13.5268 -19.2672 19.6387 -14.0642 
-19.3066 19.5582 -14.07 -19.2875 19.8545 -14.0379 -18.6951 19.9619 -14.4615 
-18.0653 20.4329 -14.8609 -17.6943 20.2318 -15.0552 -16.7189 20.1377 -15.4684 
-16.3036 20.1339 -15.5697 -16.1066 19.4346 -15.6096 -16.3066 19.2589 -15.67 
-15.908 19.2736 -15.671 -14.9278 19.4361 -15.4512 -14.8912 19.2362 -15.4671 
-15.1518 19.2336 -15.5671 -14.7066 19.2346 -15.3385 -14.6599 19.4359 -15.2873 
-14.6176 19.2346 -15.27 -13.8983 19.4329 -14.5148 -14.1033 19.2331 -14.7558 
-13.7174 19.4535 -14.257 -13.4957 19.6085 -13.8621 -13.4363 19.5859 -13.7318 
-13.413 19.232 -13.4445 -13.2166 19.2346 -13.07 -13.3066 19.1679 -13.27 
-12.9182 19.0323 -12.6255 -13.008 19.2362 -12.6554 -12.8375 19.0346 -12.47 
-12.7842 19.2346 -12.27 -12.704 19.0378 -12.2731 -22.356 19.6346 -10.67 
-22.2269 19.925 -11.0641 -22.1348 20.241 -11.3312 -21.9122 20.8015 -11.7103 
-21.3549 20.6656 -12.2651 -20.9072 20.7391 -12.6791 -20.7388 20.9228 -12.8411 
-20.3026 20.2124 -13.1704 -20.1269 20.0302 -13.3 -19.8455 19.6389 -13.6622 
-19.5066 19.6346 -13.9432 -19.289 20.0404 -14.0282 -18.9388 20.2531 -14.2849 
-18.4313 20.3043 -14.6293 -17.7511 20.5328 -15.0322 -17.3049 20.576 -15.239 
-16.9025 20.1871 -15.4059 -16.5072 20.4902 -15.5122 -16.302 20.778 -15.5451 
-16.0346 20.2302 -15.601 -15.9066 19.4346 -15.6257 -15.1462 19.4326 -15.52 
-14.4852 19.4438 -15.1436 -14.5066 19.2346 -15.1649 -14.4087 19.2346 -15.07 
-14.1175 19.4331 -14.7825 -13.5599 19.6346 -14.07 -13.4127 19.4346 -13.47 
-13.1791 19.4296 -13.0029 -13.1067 19.233 -12.8329 -13.1066 19.15 -12.87 
-12.6461 19.238 -12.0776 -22.3608 19.8247 -10.4981 -22.4149 19.6346 -10.47 
-22.31 20.0379 -10.8166 -22.2302 20.6247 -11.2507 -22.2124 20.8377 -11.3271 
-21.8944 21.0309 -11.7995 -21.5629 20.7495 -12.0702 -21.0583 21.0511 -12.5876 
-20.5143 20.6812 -13.022 -20.1099 20.2342 -13.3206 -19.7521 19.8404 -13.7066 
-19.6883 19.6373 -13.8179 -19.5376 19.8352 -13.8776 -19.2596 20.2295 -14.047 
-18.6873 20.5442 -14.4692 -18.4127 20.6344 -14.6493 -18.0986 20.9139 -14.8244 
-16.9141 20.9824 -15.3827 -16.6192 20.8361 -15.4811 -16.1122 20.634 -15.5715 
-15.8755 19.7482 -15.6159 -15.7066 19.4346 -15.6169 -15.5527 19.4325 -15.6018 
-15.0973 20.1759 -15.5206 -14.7136 19.6728 -15.3435 -14.5567 19.6387 -15.2327 
-13.9609 19.6247 -14.6559 -13.8048 19.6346 -14.47 -13.6909 19.632 -14.3193 
-13.5037 19.8432 -14.1585 -13.3235 19.897 -13.8446 -13.3066 19.6459 -13.47 
-13.307 19.4345 -13.2549 -12.934 19.4395 -12.5844 -12.7303 19.4353 -12.2525 
-22.3952 19.8439 -10.2268 -22.4623 19.6346 -10.27 -22.3279 20.3121 -10.8604 
-22.263 20.2585 -11.0649 -22.0304 21.0435 -11.6456 -21.6386 21.0396 -12.0427 
-21.4063 21.0432 -12.2768 -20.502 21.1086 -13.069 -20.2373 20.5524 -13.2513 
-19.9427 20.2339 -13.4758 -19.7527 20.2162 -13.6611 -19.4805 20.2398 -13.867 
-19.2713 20.4762 -14.0502 -18.8771 20.7898 -14.3367 -17.9152 21.0265 -14.9147 
-17.6444 21.0225 -15.0769 -16.1066 20.8346 -15.5752 -15.9144 20.6322 -15.5821 
-15.6867 20.0562 -15.6119 -15.3152 19.6542 -15.5677 -14.909 19.7442 -15.4526 
-14.3066 19.635 -15.0244 -14.1511 19.639 -14.8702 -13.3066 19.8346 -13.7512 
-13.1484 19.8346 -13.47 -12.4974 19.4382 -11.939 -12.5066 19.1285 -11.87 
-12.5102 19.0362 -12.0067 -12.4006 19.0346 -11.67 -12.3084 19.2462 -11.4435 
-12.3082 19.0233 -11.4656 -12.2558 19.0346 -11.27 -22.4294 19.8346 -9.87004 
-22.4734 19.6368 -10.0434 -22.4496 19.6287 -9.57065 -22.3692 20.0226 -10.414 
-22.3737 20.2318 -10.5872 -22.3065 20.58 -11.0754 -22.3335 20.8467 -11.132 
-22.3063 21.0366 -11.2693 -22.1411 21.2514 -11.624 -21.5547 21.2573 -12.2026 
-21.1831 21.2333 -12.524 -20.749 21.3053 -12.895 -20.2907 20.9242 -13.2207 
-20.0911 20.4868 -13.3541 -19.498 20.459 -13.8508 -19.2473 20.8054 -14.0704 
-18.7139 21.1412 -14.4508 -18.4281 21.1884 -14.6296 -17.909 21.2277 -14.9198 
-17.3253 21.0248 -15.2227 -16.5575 21.0608 -15.51 -16.2257 21.0267 -15.5836 
-15.4977 19.9352 -15.6004 -15.3124 20.0758 -15.5727 -14.8874 20.1401 -15.449 
-14.7111 20.1948 -15.3709 -14.5303 20.0166 -15.2459 -14.0959 19.8725 -14.8588 
-13.9068 19.8366 -14.6699 -13.707 19.8491 -14.4681 -13.5373 19.8748 -14.2624 
-13.3178 20.0535 -14.0558 -13.0716 20.0493 -13.692 -12.9067 19.8347 -13.0698 
-13.019 19.5694 -12.8984 -12.6968 19.6368 -12.4796 -12.5813 19.5239 -12.1409 
-12.5076 19.2424 -11.8549 -12.2411 19.2346 -11.27 -22.4091 19.8414 -9.43401 
-22.4033 19.6346 -9.27004 -22.4327 19.8346 -9.67004 -22.4318 20.0321 -9.86232 
-22.4161 20.4962 -10.659 -21.9068 21.234 -11.8701 -20.9663 21.2376 -12.6981 
-20.307 21.3973 -13.2593 -19.9303 20.4352 -13.4794 -19.0113 20.9671 -14.2548 
-19.0526 21.2222 -14.2316 -18.1024 21.3779 -14.8359 -17.5823 21.245 -15.1195 
-17.0955 21.2575 -15.334 -16.8449 21.2315 -15.4427 -15.909 20.8685 -15.599 
-15.7066 20.4346 -15.5907 -15.4795 20.4325 -15.5793 -15.2085 20.4272 -15.5455 
-14.8968 20.3865 -15.4695 -14.294 20.0073 -15.0591 -13.4357 20.0346 -14.27 
-13.0196 20.2346 -13.87 -12.9002 19.9993 -13.3198 -12.9066 19.5778 -12.67 
-12.5066 19.7122 -12.27 -12.4944 19.6052 -12.0725 -12.3121 19.4332 -11.5951 
-12.1726 19.4346 -11.27 -12.2402 19.0346 -11.07 -12.2307 19.0346 -10.87 
-12.1575 18.8346 -10.87 -12.1691 18.8346 -10.67 -12.2193 19.0346 -10.67 
-12.1985 18.8349 -10.4255 -12.2421 19.0346 -10.27 -12.2553 18.8346 -10.07 
-22.3586 19.6346 -9.07004 -22.4275 20.4264 -10.4575 -22.4 20.6443 -10.8654 
-22.4596 21.0725 -11.0588 -22.4736 21.3931 -11.2886 -22.1299 21.4213 -11.7425 
-21.8685 21.4472 -12.0236 -21.5889 21.355 -12.216 -21.2185 21.4181 -12.5556 
-20.8446 21.4907 -12.87 -20.5718 21.6286 -13.0967 -20.0003 21.3607 -13.491 
-20.0343 20.8375 -13.4218 -19.8925 20.6571 -13.5212 -19.7212 20.4343 -13.6663 
-19.6576 20.8948 -13.7439 -19.3173 21.1333 -14.0341 -19.0491 21.4392 -14.25 
-18.4957 21.4321 -14.6087 -17.9066 21.4346 -14.9504 -17.3075 21.3008 -15.2555 
-16.5051 21.2537 -15.5658 -16.0722 21.2702 -15.6744 -15.5987 20.632 -15.588 
-14.5075 20.2384 -15.2698 -14.2715 20.2502 -15.1174 -14.0991 20.035 -14.9016 
-13.8375 20.0192 -14.6891 -13.5341 20.0594 -14.4386 -13.2954 20.2477 -14.328 
-12.9089 20.2466 -13.7686 -12.7213 20.0143 -13.1298 -12.521 19.9635 -12.695 
-12.5051 19.8314 -12.4683 -12.3371 19.6533 -11.865 -12.2607 19.609 -11.6802 
-12.1939 19.2346 -11.07 -12.2224 19.0346 -10.47 -12.2914 19.0572 -9.98722 
-12.3101 18.8374 -9.84038 -22.342 19.8346 -9.07004 -22.4243 20.0383 -9.4416 
-22.4509 20.1686 -9.66051 -22.452 20.2536 -9.87831 -22.5053 20.6592 -10.3452 
-22.5801 20.9983 -10.7006 -22.513 20.9932 -10.8927 -22.3369 21.4341 -11.5076 
-20.2057 21.6785 -13.3865 -18.2192 21.6016 -14.817 -17.5551 21.4195 -15.1634 
-17.2676 21.6882 -15.3673 -16.9183 21.577 -15.4954 -16.3244 21.3137 -15.6371 
-15.6761 21.2015 -15.6952 -15.7066 20.8346 -15.6127 -15.2082 20.6333 -15.5675 
-14.8277 20.6993 -15.5163 -14.7066 20.4346 -15.4148 -14.3478 20.4273 -15.2351 
-13.7066 20.0346 -14.5929 -13.371 20.2936 -14.4787 -12.9718 20.4002 -14.1048 
-12.7126 20.0602 -13.2326 -12.7206 19.903 -12.8983 -12.3097 19.8755 -12.2638 
-12.3211 19.8045 -12.1107 -12.1157 19.6482 -11.3797 -12.1066 19.4344 -11.0703 
-12.1622 19.2317 -10.7534 -12.1575 19.2346 -10.47 -12.1913 19.2235 -10.2447 
-12.3535 19.0346 -9.67004 -22.3066 19.6331 -8.84932 -22.3594 20.0346 -9.07004 
-22.4928 20.4806 -9.89403 -22.6904 21.4021 -10.8773 -22.6839 21.5634 -11.0628 
-22.4662 21.6632 -11.4701 -22.3065 21.6375 -11.6673 -22.1108 21.6248 -11.8704 
-21.8688 21.6143 -12.0964 -21.4909 21.7972 -12.4838 -21.277 21.6958 -12.612 
-20.558 21.7979 -13.1666 -19.7267 21.631 -13.7681 -19.8083 21.0288 -13.6347 
-19.4437 21.4377 -13.9612 -18.7007 21.6329 -14.5108 -18.5258 21.694 -14.6497 
-17.7691 21.6182 -15.0942 -17.5099 21.6897 -15.2586 -16.6014 21.6408 -15.6401 
-16.2984 21.7281 -15.7599 -15.9289 21.6283 -15.8085 -15.5101 20.868 -15.6274 
-14.6206 20.7266 -15.4695 -14.0042 20.2745 -14.9352 -13.6981 20.2288 -14.6975 
-13.5239 20.2328 -14.5787 -13.1051 20.4353 -14.3379 -12.7038 20.4376 -13.8634 
-12.7241 20.2518 -13.6046 -12.645 20.2191 -13.4862 -12.4968 20.2204 -13.2832 
[...]
CELL_DATA 9996
FIELD FieldData 1
Area 1 9996 double
0.050101751165 0.029211051331 0.019454373544 0.026738592976 0.020560737915 0.030115072544 0.025366258815 0.038647508624 0.050290834952 
0.071983173338 0.035001084358 0.046484716969 0.015136834372 0.025859169854 0.037706817944 0.044952716828 0.049932471662 0.03294216794 
0.057770871211 0.019877285508 0.077113490788 0.050610122921 0.034760607837 0.01134271594 0.048496993583 0.035228219226 0.019774953242 
0.053684402335 0.053947542741 0.047292917983 0.030312701272 0.019383068051 0.02471457241 0.0094342518977 0.030689784275 0.010345490484 
0.021840651833 0.033293023803 0.043722431517 0.061126081199 0.057327664428 0.066567118175 0.10389614105 0.098492568434 0.014234280091 
0.032045340284 0.025407887243 0.0233893667 0.031552339668 0.07317811864 0.044450570485 0.075421154207 0.055467959881 0.040475691333 
0.042533823161 0.037655214755 0.021378000969 0.065298355614 0.038088354317 0.014792504004 0.020012206236 0.021449957545 0.019332005652 
0.026915106761 0.040105972895 0.021683547785 0.078545208346 0.077639337141 0.048905843113 0.063698447181 0.10709924823 0.053663152548 
0.046140787157 0.026597029189 0.033200468887 0.0076663783726 0.028719616265 0.058888515138 0.063475688546 0.095036156471 0.045798782195 
0.05581591671 0.072902582351 0.045491306912 0.052910018938 0.055717406302 0.0630123971 0.10119890041 0.038888164797 0.0202187505 
0.035690537355 0.028208072712 0.022795581812 0.011319978002 0.031884840795 0.030312210247 0.023094919663 0.019114293812 0.016092959422 
0.034266966174 0.014109470984 0.018846599072 0.024835832931 0.024565259803 0.033653400641 0.04327030727 0.027095625692 0.046537201248 
0.078647607575 0.066386956233 0.063340090415 0.046361092853 0.052623444513 0.08386271235 0.1246362291 0.079087086911 0.093169657531 
0.051349803238 0.029919302574 0.027303853056 0.01116234057 0.019556882615 0.027734411405 0.084641037292 0.067450783784 0.08407878908 
0.058163601237 0.042712626288 0.16370791353 0.10566273184 0.05195886187 0.048682647931 0.065833011534 0.052445874431 0.038436613121 
0.016784517278 0.023280839895 0.031757708983 0.022998108879 0.015984022571 0.01426285461 0.034609012387 0.034602513063 0.022111064884 
0.022823748777 0.013034425475 0.018629012302 0.022803555089 0.041119239941 0.011056178701 0.008567741455 0.046333089925 0.024686580478 
0.020337769646 0.03439835619 0.025234260403 0.050002031508 0.041160636758 0.065835518413 0.030182685304 0.037878735294 0.042610259461 
0.047423649904 0.056051561683 0.055102870121 0.10626019794 0.12581665372 0.021298674132 0.033476073495 0.026043979645 0.022690454702 
0.022416343822 0.029073975133 0.027705571912 0.032898176826 0.086055442146 0.089206824031 0.08918917342 0.069793229108 0.088474334684 
0.075334471897 0.15101792794 0.076680516693 0.057873992266 0.046455775219 0.06164065946 0.058632529919 0.050176095597 0.037322352634 
0.016744831735 0.042288077608 0.085042967008 0.037311244027 0.022649626004 0.053323156636 0.043836077271 0.033909612687 0.031855628666 
0.026239990248 0.023486085286 0.02420828958 0.03267812693 0.024319718361 0.02915893207 0.025552203153 0.020719762881 0.045831430855 
0.024013072365 0.022852329055 0.027204168103 0.03660499652 0.038082278047 0.049383192317 0.056207792358 0.027765440541 0.058118654165 
0.024501897423 0.042967383621 0.03432824451 0.052981482356 0.088784873156 0.05260635418 0.066570095812 0.067814555346 0.024652879552 
0.043409439056 0.046519045799 0.028305646111 0.03092416924 0.086742278082 0.027122121236 0.049393064054 0.071994595255 0.053012848961 
0.093090102061 0.061812660311 0.11791702156 0.16950836718 0.11581737581 0.052627615867 0.019656313798 0.040003345239 0.070037740258 
0.031392997262 0.048110833486 0.04602307798 0.070461923425 0.034611985144 0.035056610642 0.021500296339 0.031721618088 0.051436300754 
0.029250644182 0.024565928865 0.017697740472 0.032094412965 0.055803552784 0.014049111871 0.039760057353 0.027775622371 0.065595585228 
0.048930849105 0.039802647442 0.039457318407 0.020471194978 0.017827609424 0.025147911722 0.022458204162 0.048263624775 0.024958032895 
0.026248393132 0.040910207542 0.036538941574 0.035718298403 0.031204729491 0.024955940853 0.04774824186 0.021949304086 0.039055049822 
0.048304587663 0.043819219069 0.080314591875 0.060686717449 0.05924218969 0.062964921117 0.04054139001 0.028843640253 0.050066760099 
0.051704654837 0.037033594363 0.031121639526 0.0373410894 0.070476990333 0.1230080634 0.065149861166 0.099489751569 0.10284925421 
0.020129692887 0.077556864666 0.078755943998 0.098486879487 0.039895761332 0.038367474454 0.022439512798 0.019879003909 0.080471250161 
0.055610669658 0.050922543742 0.054259188575 0.046591114049 0.044309166011 0.058086817214 0.049963447724 0.06167034763 0.02310315845 
0.034119998449 0.026315090856 0.021599188179 0.016563659542 0.038818723181 0.018273034855 0.03770489488 0.03131013514 0.11351031475 
0.039000228889 0.048297312195 0.019942165188 0.026744690318 0.014950329906 0.013530144882 0.048024718052 0.01868393226 0.032064307069 
0.020651322866 0.037810871422 0.050515904033 0.041697804566 0.034921160817 0.034759556406 0.025015868488 0.023096776256 0.051951460292 
0.036223288992 0.05080624723 0.036648504512 0.051661732032 0.025920235495 0.022725691205 0.070486044718 0.062730289727 0.031201417558 
0.023752546864 0.020827809178 0.026811811321 0.037707341339 0.049437560154 0.039284452286 0.078971179566 0.093929623457 0.08919596666 
0.049010984828 0.031765414952 0.039002159071 0.056901827584 0.04427643056 0.043802331803 0.021229379645 0.023454578392 0.037412156138 
0.04832799096 0.03935913289 0.033508060258 0.027117199683 0.037578487982 0.04295474199 0.056271263755 0.040972094781 0.036374986878 
0.029545999653 0.031548356722 0.032474205073 0.010709213602 0.02775429 0.051762638744 0.042872637054 0.044762035502 0.049733651031 
0.035079163244 0.019560074829 0.023843421332 0.042793613293 0.023847080458 0.014476051125 0.039252465357 0.045317505741 0.019674552397 
0.020115382065 0.021317478743 0.021327306731 0.025376786947 0.036130710788 0.02141210905 0.024954873021 0.019746292981 0.035412682987 
0.05927073296 0.024763288564 0.035642308533 0.038246231958 0.032469604964 0.028093093176 0.083449010159 0.032218123964 0.054176428304 
0.025103071929 0.026521180415 0.03093149969 0.081335083612 0.0914678515 0.060973147819 0.024083353154 0.030687984331 0.031320532837 
0.10577286552 0.055424269601 0.015847773847 0.044382593427 0.059452392349 0.053585962941 0.023156420839 0.041944312509 0.041602810453 
0.031928843255 0.03534970612 0.034666978195 0.03463565565 0.053178264038 0.037408657153 0.031193522516 0.04308831116 0.045145077561 
0.048303323137 0.03800181475 0.02425253187 0.025260780989 0.037599097041 0.021147017761 0.026421328934 0.027216373979 0.030470097502 
0.018500505877 0.031829978893 0.066094701797 0.019091474135 0.052027826657 0.03240280442 0.040924157035 0.061630862864 0.029780817554 
0.015157143116 0.026631003623 0.038081687653 0.034636994939 0.021660444173 0.02106511935 0.020551987844 0.020649951551 0.020128263611 
0.020270783364 0.031112992264 0.026222858414 0.037143073993 0.023439504665 0.033154626006 0.079548390855 0.069340241581 0.028590754693 
0.054189075881 0.05195967641 0.025755227297 0.048885624224 0.030926645858 0.029337198898 0.041812075497 0.016519289529 0.048100149228 
0.05599716789 0.039859783926 0.062307608447 0.057472762517 0.088434563817 0.038170383799 0.031161677723 0.035041230902 0.093248646628 
0.082598663237 0.044236556094 0.035285396937 0.080349297933 0.048781915401 0.028942588557 0.042961212832 0.033314377686 0.025881431078 
0.046615618397 0.047797189289 0.064439120881 0.031291491589 0.035701555848 0.076086047732 0.019028757353 0.022566787606 0.028292939449 
0.052286206218 0.02431745615 0.018599472995 0.031451668972 0.031604628137 0.027673059304 0.017662582217 0.024970106904 0.028300035936 
0.022522348061 0.061106025768 0.020309444909 0.054852626368 0.011960416004 0.029568061354 0.056825703415 0.063676455497 0.034511537431 
0.028101880747 0.02688692539 0.032244020025 0.027301910813 0.033460738115 0.04144073995 0.022750511503 0.032799006865 0.020688044196 
0.02102786724 0.019718674195 0.028051749383 0.033901362332 0.022753715785 0.037135559997 0.037195151006 0.03738043686 0.0235638154 
0.06578626235 0.065374347086 0.087132272159 0.03737110294 0.04150283373 0.069483737886 0.033741703811 0.035214056155 0.040221354704 
0.032042116329 0.10833232698 0.071018295037 0.02759176039 0.039705652353 0.093043589367 0.074479898134 0.049809441059 0.085453165403 
0.0746381734 0.066128324299 0.046331910467 0.048760211988 0.040587288019 0.041571119065 0.052737489451 0.073903323747 0.071820234375 
0.040888123277 0.055875922521 0.080318718863 0.038692930653 0.021971028808 0.039082730076 0.039873362642 0.033086029091 0.028339579451 
0.048782580238 0.026878309924 0.040219795026 0.043262326658 0.017759419247 0.02477687641 0.021450856795 0.023270091551 0.035267438539 
0.049934473595 0.051436259181 0.0330711728 0.013651888567 0.033128826744 0.020848564912 0.041290590959 0.036307008913 0.02066804325 
0.036016099055 0.030124077038 0.041090758982 0.02430043152 0.02240228065 0.029111989186 0.029244341176 0.023877300511 0.045916226042 
0.032744225632 0.017362719078 0.030868258975 0.029804829134 0.035519190903 0.024894958502 0.024508266614 0.041410108135 0.02589368507 
0.04459620393 0.053524492083 0.049184556131 0.046875500867 0.029329755718 0.031225507318 0.029292798565 0.10150773169 0.03518197671 
0.1233461478 0.10800482897 0.035143495026 0.060965334938 0.026864517945 0.054710833318 0.038700897875 0.070894214909 0.051895189375 
0.045504105804 0.029782592421 0.062896296177 0.11312698108 0.039292579329 0.019509544626 0.090701114256 0.070066479243 0.066863510003 
0.0384505609 0.03395654028 0.052990072856 0.036422406918 0.024429392353 0.044771305296 0.034536023609 0.05177037769 0.028180978214 
0.055260558096 0.03856901048 0.025254182325 0.046621749945 0.022713274638 0.018938231052 0.029862940869 0.03440529092 0.048426140861 
0.0346492888 0.027222934571 0.032574240244 0.061451185652 0.018486337104 0.013711170336 0.026013758048 0.019008362252 0.046906507538 
0.034737428775 0.064060461736 0.056820963376 0.035740724356 0.017737208327 0.02365215747 0.018885270244 0.067415824191 0.035307028756 
0.020906545207 0.028847154097 0.036404426046 0.057681069074 0.030795706225 0.068267916976 0.070545284771 0.052165794872 0.040341246895 
0.056782938137 0.045508755136 0.058637193176 0.043296638148 0.02431677426 0.021314839089 0.054060484043 0.034819154744 0.029476514926 
0.032662616304 0.053789422969 0.037336763787 0.06876243128 0.059144209964 0.062142022237 0.056292347927 0.021837757831 0.046030111898 
0.087029613665 0.041269672766 0.068043313028 0.043400828004 0.033346957553 0.035668369165 0.090217679875 0.041212139268 0.03025324087 
0.049119312366 0.081881866307 0.062984314811 0.060904673813 0.037754073975 0.028698506651 0.037018354724 0.044121520891 0.035587700505 
0.039578941109 0.029676674089 0.062606584045 0.090362193544 0.03981869427 0.031782757652 0.0300770708 0.02902462047 0.050043387238 
0.014182886078 0.033548383193 0.053137955615 0.0329588139 0.037552726556 0.01922975567 0.030933181603 0.058784502027 0.048189977508 
0.018810610024 0.030572776072 0.076587252682 0.037415158946 0.066977491448 0.033855902218 0.039112978983 0.036625594616 0.015408402024 
0.033522681785 0.033338523098 0.026876787448 0.0361191621 0.021360095058 0.020744871469 0.035530471561 0.043462381356 0.069119687555 
0.052219901841 0.063842416985 0.049543813 0.041471520191 0.055524181036 0.050498903238 0.070011288295 0.060858847785 0.044870383137 
0.024768367161 0.028303882147 0.03277885268 0.059445429552 0.055803728057 0.034762905762 0.035975349625 0.066448250987 0.044167262552 
0.08798677301 0.0476001821 0.055771014271 0.074685529643 0.040933506974 0.070899933182 0.039280600619 0.027114565155 0.035078213312 
0.079890032686 0.026671401797 0.03062968696 0.091185933253 0.033653421045 0.083978126059 0.050114706391 0.044926538365 0.046083968296 
0.073414507492 0.068408778288 0.042437180346 0.057601199251 0.054681320651 0.024904333358 0.098216726999 0.10779148693 0.085390867008 
0.067971978541 0.037029480419 0.09774564473 0.11184567511 0.031980739475 0.04345017124 0.028892911573 0.034429211109 0.025898919124 
0.045040477594 0.046230745211 0.056484091144 0.033409401306 0.049375801342 0.05989666205 0.073620265377 0.019010783464 0.045763266508 
0.056920213064 0.030446716284 0.072449126971 0.063788100015 0.055771062712 0.027441499063 0.022678661088 0.036960161695 0.015046271875 
0.029188625274 0.068779127959 0.061869349931 0.048361420015 0.031780323795 0.042000726787 0.020204774775 0.032896144508 0.053445768867 
0.080621925472 0.12377801959 0.023362146586 0.032112302614 0.039251779543 0.039325912044 0.03359884899 0.0411353747 0.023626036146 
0.040268286845 0.069980612138 0.091897031896 0.075341033178 0.057796044477 0.027628351149 0.040948728612 0.053842081595 0.066689281025 
0.089124284291 0.037586169067 0.053142759223 0.061256503638 0.062977588692 0.064867610372 0.041629592544 0.054572983249 0.040366539083 
0.058941069741 0.048825375918 0.065304275164 0.036928791828 0.048198707594 0.050829100702 0.054388351509 0.064262259224 0.060100710347 
0.057641997144 0.048787705177 0.058577191464 0.081701619858 0.053072148223 0.053109573116 0.047149334868 0.042401171337 0.058131072954 
0.041865856083 0.034476898955 0.053158101275 0.035147008443 0.033665864462 0.020838209081 0.047397228094 0.037609857785 0.058006080888 
0.031737268149 0.048476760887 0.055702834294 0.034297517062 0.06223998157 0.061700486518 0.048293029334 0.045309875669 0.087310632515 
0.0629309107 0.032942139679 0.024815009948 0.035212051744 0.03395467006 0.036992412505 0.026401691889 0.017157869372 0.026188820652 
0.050319664505 0.041756272018 0.043122738741 0.027542757608 0.058984471363 0.023183228008 0.027836936514 0.036524255131 0.06268778741 
0.058889949524 0.10391372424 0.063067377494 0.041317348364 0.040489278507 0.029797270315 0.026423638816 0.023847745061 0.037364063378 
0.034793109934 0.068124857219 0.041496743131 0.06680647092 0.074324789359 0.079650133935 0.042362137915 0.038777151503 0.10031824135 
0.039237878638 0.037427875028 0.044669994941 0.084145409044 0.059700734991 0.063334342999 0.028964731756 0.066492358728 0.075889522724 
0.050908483255 0.044190898551 0.044948915283 0.042370729524 0.10272390132 0.10526406927 0.05078550685 0.056455386252 0.033826679014 
0.06039613032 0.080879761467 0.04909261575 0.070598077359 0.044431102984 0.061501773279 0.069409177862 0.045446012616 0.049682652622 
0.038665532594 0.041512038168 0.055017169123 0.038034882592 0.059014197069 0.031286838385 0.060013937263 0.036230584927 0.033805470451 
0.03052739673 0.064848234548 0.098948251059 0.03300606827 0.036315164668 0.048851058599 0.027484856106 0.023003538571 0.042328358137 
0.04954882866 0.035417701495 0.036954903641 0.030472021825 0.046755646791 0.035176542423 0.021822139338 0.016927530713 0.038119655947 
0.06077139409 0.043683705631 0.049576290268 0.040728777669 0.043499650724 0.039372927015 0.049730648533 0.066550967428 0.025655678942 
0.025795917914 0.035074042579 0.082509783934 0.043736151015 0.039746062841 0.05682401019 0.049866519439 0.04266603366 0.091018796439 
0.063921360531 0.059319873451 0.065013514674 0.097063677907 0.077107927774 0.1203923398 0.038812368484 0.063242420849 0.10005790386 
0.090145676033 0.075644074568 0.048164635511 0.061350237098 0.039326496427 0.08831067024 0.10252006537 0.043690180195 0.047607100003 
0.13839663993 0.089075939231 0.11240484292 0.086488556788 0.073953031046 0.061668296808 0.056875614026 0.045666005236 0.03885559971 
0.059436237979 0.069107598226 0.059751651933 0.041678965711 0.046384033411 0.065659317405 0.072071100161 0.040984904152 0.043544938658 
0.063267071233 0.03660401478 0.033878728852 0.036445472554 0.03115122253 0.032683423154 0.053230465096 0.035487346559 0.026969114085 
0.032152330351 0.027173989372 0.027736797437 0.045421132984 0.057174970637 0.028066195349 0.054523367351 0.041450153323 0.05580252448 
0.086756770523 0.028069123126 0.07371972335 0.05712437692 0.034653939507 0.037058088823 0.044437109445 0.040630138385 0.041995646623 
0.033967003803 0.026241980312 0.13206737573 0.053150793344 0.046586999188 0.046198826642 0.0420421963 0.095584022154 0.0581785915 
0.048238874638 0.035611189169 0.030617452281 0.064921416197 0.046613596669 0.054677022392 0.044613222287 0.055414490373 0.06973801821 
0.041491450072 0.065248845771 0.12068693084 0.058990205443 0.065996668964 0.076885178756 0.12537583399 0.076820013877 0.069882608203 
0.1187970235 0.044553985847 0.075978844563 0.059690138411 0.053751063534 0.061430530811 0.066419870643 0.039375506758 0.055522028604 
0.056848920199 0.10460726184 0.12523604397 0.073349684485 0.035105639884 0.032453168063 0.074384093746 0.093011999363 0.068054299073 
0.045107256436 0.04529520142 0.040568275174 0.044972738172 0.03407814725 0.046528110177 0.02877648348 0.033654215477 0.064594474452 
0.052122664007 0.0390452531 0.049661136616 0.050799979298 0.027641287369 0.027668480698 0.030387157102 0.054208396365 0.031245692529 
0.035264049642 0.030094369967 0.033846221252 0.058281779039 0.028412615664 0.026755849015 0.047054521506 0.0169317876 0.051751805441 
0.027637816284 0.024160263175 0.040842945628 0.039560800111 0.054702458096 0.073050822468 0.069754572888 0.059727201498 0.056256046228 
0.074665668092 0.030587622575 0.041645783368 0.043218001951 0.049875299281 0.015211933894 0.026524189018 0.016050773876 0.037530693616 
0.07136174044 0.05809872975 0.053729501138 0.071443724151 0.065556244652 0.056925097666 0.03149465318 0.035254736561 0.031318768864 
0.066755920335 0.091486437826 0.030574948244 0.051821288948 0.056314145246 0.045214805807 0.068124995916 0.044902064796 0.070779110968 
0.042520782067 0.025420885777 0.069455216485 0.064022646011 0.071817378051 0.15559192402 0.03034808288 0.074969076565 0.048742849825 
0.12289324165 0.049918145533 0.038185662337 0.046214962475 0.051319849109 0.087712545937 0.029897515276 0.028611566413 0.12764615471 
0.04101981554 0.054334929941 0.053890841545 0.020819870574 0.028499987963 0.065151232076 0.039182990464 0.029645366422 0.035426660127 
0.041230860219 0.062300757119 0.036871291637 0.034217983342 0.027734447225 0.079150453235 0.062949048321 0.047830581411 0.047972482705 
0.04142699152 0.066917216117 0.052553726937 0.03896743478 0.031399032178 0.025175166576 0.03005048038 0.024798982841 0.045860953976 
0.01789270923 0.044775802943 0.026402212492 0.11763460221 0.033847826948 0.023172177144 0.043920688282 0.037681075136 0.029501508762 
0.020537326575 0.067069873107 0.043423049762 0.042977203118 0.071918513731 0.019964029594 0.06518435267 0.047410491107 0.04197046288 
0.061157530193 0.035624709465 0.04093713532 0.032268594517 0.035780109406 0.060169768125 0.0087446423771 0.025266108178 0.038602687428 
0.052923187192 0.014860384091 0.035626046644 0.079770799014 0.043058396931 0.048655921369 0.048731013352 0.11258753314 0.054346970583 
0.043037197915 0.055642209954 0.033577954262 0.041808499979 0.059387300526 0.057686730822 0.036152850297 0.030886238375 0.071860445415 
0.048717721165 0.063490552458 0.049986368976 0.067722162342 0.1547795583 0.063579239418 0.081706353321 0.044810221613 0.093576109835 
0.069463835407 0.089849829585 0.051229088496 0.05616045112 0.097796990506 0.064933004414 0.094500619596 0.070178560847 0.056403083147 
0.11413704063 0.14888541411 0.040041243828 0.097363375771 0.07608427884 0.0429862304 0.054727955205 0.064406029241 0.071046572216 
0.055695426691 0.059539466507 0.025941107522 0.024375627399 0.038587568063 0.032806240717 0.044501637797 0.032876408187 0.042637111141 
0.071593790283 0.090737665334 0.067652741431 0.11584977362 0.051906090397 0.053137188518 0.070502960919 0.058093246286 0.057187842479 
0.035909211063 0.047668168821 0.030429739838 0.025745251047 0.055269669719 0.060838533426 0.054517368316 0.038349918602 0.042917631177 