# vtk DataFile Version 4.2
vtk output
ASCII
DATASET POLYDATA
POINTS 6352 float
-38.3452 19.2543 -6.7832 -38.3691 19.5016 -6.57606 -38.2257 19.5526 -7.14243 
-38.2003 19.9815 -7.1157 -38.1452 19.6856 -7.43555 -38.2678 19.9879 -6.83867 
-38.1267 19.9826 -7.444 -38.0167 19.9923 -7.68218 -38.052 19.7168 -7.6425 
-37.9982 19.7826 -7.7027 -37.9984 19.4835 -7.73531 -37.7982 19.7826 -7.7791 
-37.8019 19.4249 -7.79843 -38.3527 19.9801 -6.47495 -38.1982 20.0801 -7.044 
-38.0913 20.1826 -7.244 -37.5906 19.6813 -7.75749 -38.4263 19.9797 -6.12813 
-38.3064 20.1892 -6.47672 -38.1999 20.1815 -6.88736 -38.02 20.2049 -7.49846 
-37.9852 20.179 -7.63749 -37.7982 19.9826 -7.77892 -37.4116 19.9805 -7.71226 
-37.3224 19.3614 -7.70747 -37.0194 19.6741 -7.62762 -36.7312 19.381 -7.57315 
-38.5584 19.3969 -5.78678 -38.3529 20.1826 -6.244 -38.1506 20.1826 -7.044 
-37.9982 20.2437 -7.244 -37.7982 20.1826 -7.73487 -37.5982 19.9826 -7.75665 
-36.6123 19.5701 -7.53154 -38.4991 19.9784 -5.84247 -38.4039 20.1729 -5.98393 
-38.1744 20.5617 -6.24519 -38.1975 20.3383 -6.64351 -38.0707 20.3971 -6.82985 
-37.7982 20.2788 -7.444 -37.7982 20.2513 -7.644 -37.4628 20.1839 -7.64576 
-37.0353 19.9877 -7.6172 -36.7287 19.9731 -7.55085 -35.8928 19.3478 -7.37839 
-38.6022 19.5153 -5.57964 -38.2701 20.3826 -6.044 -38.1718 20.4901 -6.458 
-37.9924 20.3391 -7.02721 -37.6608 20.3807 -7.24825 -37.1982 20.0779 -7.644 
-36.293 19.7992 -7.4499 -35.8803 19.7874 -7.34957 -38.5808 19.9766 -5.52854 
-38.4375 20.1826 -5.71165 -38.2548 20.3826 -5.844 -38.1686 20.589 -6.04518 
-37.9047 21.0522 -6.23426 -37.9495 20.7458 -6.64622 -37.9984 20.4811 -6.84309 
-37.8804 20.3861 -7.07623 -37.5982 20.2889 -7.444 -37.1982 20.1826 -7.58577 
-36.9982 20.1826 -7.54933 -36.2999 19.9861 -7.43836 -35.6862 19.4302 -7.31689 
-38.7032 19.7886 -5.10031 -38.7503 19.4893 -4.97066 -38.1883 20.5004 -5.84799 
-38.0284 20.8412 -6.04562 -37.9108 20.9507 -6.44888 -37.613 20.6234 -7.10354 
-37.3982 20.3826 -7.37576 -37.3982 20.3179 -7.444 -37.2052 20.3687 -7.42863 
-36.5831 20.2087 -7.45683 -36.4163 20.1473 -7.43469 -35.4975 19.7869 -7.25383 
-38.8795 19.5359 -4.39878 -38.7979 19.3042 -4.84473 -38.8428 19.782 -4.50041 
-38.6983 19.9826 -5.04179 -38.4904 20.1848 -5.42225 -38.3982 20.2242 -5.644 
-38.198 20.3847 -5.62213 -37.8507 21.1826 -6.044 -37.8013 21.163 -6.43368 
-37.7983 20.9807 -6.64353 -37.8012 20.7457 -6.8439 -37.7933 20.5001 -7.04964 
-37.3978 20.5826 -7.24396 -36.8043 20.35 -7.44205 -36.1982 20.1826 -7.32136 
-35.9982 19.9826 -7.34752 -35.7255 19.986 -7.25178 -35.2867 19.5814 -7.21617 
-38.7439 19.9826 -4.844 -38.5982 20.1154 -5.244 -38.0743 20.6048 -5.64687 
-37.9843 20.8713 -5.83337 -37.7664 21.3356 -6.23469 -37.3915 20.8761 -7.07486 
-37.2144 20.6016 -7.28813 -36.9984 20.3658 -7.44452 -36.5982 20.3826 -7.38617 
-36.4143 20.4676 -7.28059 -35.5982 19.9374 -7.244 -35.1982 19.7826 -7.18585 
-38.943 19.7887 -4.09572 -38.8001 19.9825 -4.59712 -38.5982 20.1826 -4.82194 
-38.5928 20.1792 -4.98783 -38.3991 20.2195 -5.43293 -38.1982 20.3055 -5.444 
-38.1098 20.3826 -5.444 -37.7407 21.3495 -5.83148 -37.7612 21.3773 -6.04367 
-37.6043 21.4927 -6.45446 -37.5857 21.339 -6.63499 -37.6089 20.9929 -6.84829 
-36.9924 20.6721 -7.28532 -36.8022 20.8325 -7.20124 -36.2144 20.3073 -7.25602 
-36.035 20.1822 -7.22845 -35.3982 19.9826 -7.14866 -34.9982 19.7826 -7.13732 
-39 19.5749 -3.9013 -38.9925 19.1739 -4.11989 -38.8866 19.9826 -4.244 
-38.6224 20.1888 -4.65114 -38.3946 20.2063 -5.03035 -38.0041 20.5576 -5.44526 
-37.8168 21.0632 -5.63296 -37.6102 21.6403 -6.04283 -37.5538 21.6993 -6.27103 
-37.4066 21.2537 -6.85219 -37.2105 21.065 -7.04648 -36.5994 20.6526 -7.24728 
-36.1859 20.6548 -7.04813 -35.8092 20.1764 -7.02058 -35.5982 20.0619 -7.044 
-35.1335 19.9832 -7.04304 -34.7982 19.5826 -7.09193 -39.114 19.4818 -3.45697 
-39.126 19.187 -3.56524 -39.0326 19.7751 -3.69816 -38.9342 19.9826 -4.044 
-38.7982 20.0815 -4.444 -38.4029 20.1869 -4.59372 -38.1982 20.2255 -5.244 
-37.9982 20.3826 -5.28833 -37.8112 20.9054 -5.44857 -37.548 21.5503 -5.62765 
-37.3977 21.8027 -6.45751 -37.3985 21.5839 -6.64439 -36.9904 20.9942 -7.12566 
-36.5998 21.1774 -7.00706 -36.3975 20.8419 -7.07867 -35.9974 20.371 -7.04403 
-35.3982 20.0259 -7.044 -35.0721 19.9803 -7.04067 -34.6657 19.7834 -7.04322 
-34.6998 19.1757 -7.07166 -26.6588 19.1826 -5.044 -26.638 18.919 -5.04238 
-26.7982 18.9826 -5.16998 -26.5982 18.9826 -4.97713 -39.198 19.2538 -3.20152 
-38.9986 19.9823 -3.73008 -38.7982 20.1549 -4.044 -38.7982 20.13 -4.244 
-38.6774 20.1826 -4.444 -38.6406 20.1909 -4.31387 -38.1985 20.1828 -5.04105 
-37.9943 20.3339 -5.24514 -37.8122 20.6159 -5.23831 -37.5896 21.2412 -5.39674 
-37.5082 21.7724 -5.84081 -37.3727 22.0963 -6.03822 -37.3978 21.9824 -6.24126 
-37.3774 21.3451 -6.82427 -36.9999 21.5098 -6.88807 -36.7947 21.2758 -7.00699 
-36.1871 21.0011 -6.85777 -35.9896 20.6631 -6.8582 -35.8004 20.3073 -6.84089 
-35.7146 20.1826 -6.844 -35.3982 20.0343 -6.844 -35.1924 20.018 -6.84681 
-34.7982 19.8909 -7.044 -34.546 19.6164 -7.03483 -26.7982 19.1826 -5.16383 
-26.9914 19.1697 -5.24404 -26.6019 19.1787 -4.84054 -26.5849 18.983 -4.83403 
-39.2681 19.5356 -2.78309 -39.2244 19.7722 -2.89746 -39.0022 20.0261 -3.65814 
-38.7982 20.1685 -3.844 -38.5943 20.1784 -4.08365 -38.2042 20.1716 -4.8446 
-37.9982 20.1984 -5.044 -37.7703 20.7401 -5.26991 -37.6001 20.9757 -5.24436 
-37.3981 21.5775 -5.44525 -37.398 21.8037 -5.63624 -37.2063 22.0457 -6.45653 
-37.2118 21.7915 -6.64399 -37.2021 21.5338 -6.8098 -36.6023 21.6655 -6.79299 
-36.3982 21.1826 -6.91956 -35.5982 20.0933 -6.844 -34.7671 19.9826 -6.87362 
-34.3982 19.7826 -6.98027 -34.2806 19.4225 -6.95832 -27.5441 19.1867 -5.38705 
-27.5088 18.9918 -5.3784 -27.7855 18.89 -5.44569 -27.1982 19.1826 -5.29345 
-26.9402 19.3846 -5.06163 -26.7982 19.3415 -5.044 -26.8015 19.371 -4.84263 
-26.6396 19.1826 -4.644 -39.3251 19.227 -2.72564 -39.1111 19.9832 -3.2505 
-38.7982 20.1732 -3.644 -38.3677 20.1367 -3.73752 -38.1126 20.1462 -4.43096 
-37.9916 20.1835 -4.99269 -37.7939 20.3318 -5.04262 -37.5779 20.771 -5.12589 
-37.497 21.1826 -5.244 -37.3852 21.3571 -5.25198 -37.2217 22.3315 -5.85573 
-37.2667 22.1826 -6.244 -36.9818 21.9199 -6.67052 -36.7966 21.7146 -6.80048 
-36.3928 21.3455 -6.84818 -35.9804 20.968 -6.63734 -35.7507 20.3886 -6.67309 
-35.5959 20.1787 -6.60723 -35.3982 20.0355 -6.644 -34.8046 19.9827 -6.71343 
-34.5982 19.9606 -6.844 -34.1496 19.5973 -6.92606 -27.788 19.2196 -5.44433 
-28.0467 18.9358 -5.49803 -27.1982 19.3335 -5.244 -26.6223 18.9887 -4.60779 
-39.4164 19.1851 -2.3907 -39.3541 19.7924 -2.36758 -39.1954 19.9884 -2.89546 
-38.9982 20.1039 -3.444 -38.6162 20.1684 -3.74621 -37.9895 20.1513 -4.82162 
-37.3565 21.0168 -5.08282 -37.1982 21.5826 -5.30069 -37.2213 21.8179 -5.45182 
-37.1998 22.1724 -5.64541 -37.1114 22.5563 -6.0483 -37.1906 22.3189 -6.23892 
-37.1795 22.1165 -6.43204 -36.6026 22.171 -6.53764 -36.3898 21.7234 -6.66924 
-36.1891 21.3987 -6.65552 -36.0828 21.1826 -6.644 -35.7969 20.5442 -6.63456 
-35.1961 19.9966 -6.49681 -34.3982 19.9336 -6.844 -34.1982 19.7826 -6.91675 
-33.7421 19.5981 -6.8293 -28.0872 19.1705 -5.5115 -27.6901 19.3846 -5.35108 
-27.3113 19.3827 -5.23826 -26.7982 19.3451 -4.644 -26.6896 19.1826 -4.444 
-26.7117 18.9798 -4.2312 -26.821 18.9881 -3.7542 -26.9005 18.7994 -3.49205 
-39.5451 19.5648 -1.67906 -39.601 19.2112 -1.63434 -39.3697 19.5794 -2.37355 
-39.3056 19.9826 -2.444 -39.2515 19.9826 -2.644 -38.9982 20.1471 -3.044 
-38.9982 20.1358 -3.244 -38.7982 20.1695 -3.444 -38.5538 20.1254 -3.14566 
-37.8166 20.1162 -4.23188 -37.7864 20.1295 -4.61823 -37.5977 20.2986 -4.85392 
-37.3982 21.1826 -5.16792 -37.1982 21.4954 -5.244 -37.0111 22.4914 -5.6458 
-37.0848 22.5826 -5.844 -37.1982 22.3826 -6.12913 -36.9982 22.1826 -6.50678 
-36.8024 22.1533 -6.56836 -36.3942 22.1121 -6.46694 -35.9984 21.247 -6.45841 
-35.7581 20.6432 -6.43993 -35.615 20.2799 -6.45265 -35.3982 20.0475 -6.444 
-34.7166 19.9564 -6.41229 -34.2429 19.9403 -6.64165 -33.9292 19.7835 -6.84194 
-33.4541 19.1232 -6.76969 -28.3848 19.1663 -5.58103 -28.0288 19.3819 -5.4454 
-27.1982 19.428 -5.044 -27.0263 19.409 -4.85588 -26.9903 19.3842 -4.52221 
-26.7979 19.1854 -4.02758 -26.9073 18.9826 -3.444 -39.3555 19.9826 -2.244 
-39.1982 20.0805 -2.644 -38.9982 20.1512 -2.844 -38.7982 20.1615 -3.244 
-37.8432 20.0862 -3.61902 -37.5776 20.0941 -4.18615 -37.5689 20.1771 -4.65899 
-37.3944 20.4042 -4.79122 -37.4233 20.8316 -5.04942 -37.2038 21.0158 -5.03477 
-37.1982 21.3826 -5.17451 -36.9966 21.5651 -5.25323 -36.9982 21.7826 -5.34583 
-36.9982 22.1826 -5.50296 -36.9777 22.7787 -6.03603 -36.9962 22.3187 -6.43382 
-36.6137 22.3691 -6.44699 -36.1982 21.7818 -6.4439 -36.2122 21.5231 -6.62487 
-36.0312 21.394 -6.42617 -35.8914 20.9826 -6.444 -35.537 20.1857 -6.30684 
-35.397 20.0493 -6.13391 -35.2028 19.9847 -6.16056 -34.1982 19.8903 -6.844 
-33.5982 19.7826 -6.73366 -33.3189 19.3514 -6.7236 -28.3438 19.383 -5.5252 
-27.8419 19.466 -5.24248 -27.5982 19.4337 -5.244 -27.4503 19.4506 -5.04648 
-26.7982 19.319 -4.444 -26.7982 19.2664 -4.244 -26.8509 19.1796 -3.75152 
-26.9912 18.986 -3.18042 -39.8439 19.307 -0.555532 -39.7357 19.3398 -1.01032 
-39.798 19.1774 -0.808172 -39.4781 19.7704 -1.88281 -39.3968 19.9844 -2.0622 
-39.1982 20.1293 -2.244 -39.1982 20.113 -2.444 -38.8143 20.1489 -2.96462 
-38.0202 20.0822 -3.16485 -37.5982 20.1158 -4.444 -37.3982 20.241 -4.644 
-37.1982 20.7826 -4.94288 -37.1982 21.1826 -5.08514 -37.0008 21.3632 -5.16356 
-37.0243 22.0155 -5.439 -36.7982 22.3826 -5.53661 -36.9864 22.5421 -5.64902 
-36.9755 22.7776 -5.85293 -36.9983 22.5833 -6.2441 -36.8119 22.5206 -6.38671 
-36.3973 22.4395 -6.25604 -36.2926 21.9826 -6.444 -36.115 21.5826 -6.444 
-35.9693 21.3612 -6.2509 -35.7975 20.8692 -6.25057 -35.6023 20.3318 -6.26777 
-34.7576 19.9339 -5.83504 -33.9979 19.9174 -6.64357 -33.7982 19.8946 -6.644 
-33.2219 19.578 -6.69858 -28.7478 19.3824 -5.64264 -28.671 19.1868 -5.65476 
-28.3625 19.4744 -5.44122 -28.1982 19.4967 -5.244 -27.4626 19.4286 -4.69586 
[...]
CELL_DATA 12570
FIELD FieldData 1
Area 1 12570 double
0.07794715015 0.066658789905 0.13528548984 0.061245790546 0.05003233002 0.030529463571 0.01292635474 0.036909830986 0.090014910556 
0.014102142714 0.036231162882 0.038923735963 0.009375192532 0.032192261536 0.037677756085 0.085088986936 0.039888386755 0.018756327693 
0.015041660517 0.03075686126 0.025392069093 0.024964643421 0.021409891866 0.020868685588 0.07033473134 0.091757446873 0.21842547794 
0.036938940364 0.02534936272 0.042847472638 0.0091965515745 0.011702677015 0.014210239646 0.018173786197 0.020478574755 0.024292131819 
0.030320961456 0.028889917466 0.11075236143 0.04614301099 0.085919409717 0.027089096935 0.049424037039 0.035049527411 0.021132787087 
0.011279953887 0.029075837423 0.017463830567 0.01121439633 0.020599775395 0.020803199688 0.060974325486 0.078196498146 0.083649719413 
0.065757887348 0.029784272068 0.031652241217 0.04207903414 0.03486356949 0.029862739552 0.028586688254 0.024556597546 0.024572633023 
0.03681944176 0.020246379733 0.019337567131 0.037017827313 0.026024755735 0.018291656695 0.049138560597 0.079913844914 0.16399433432 
0.075055457476 0.029384320945 0.025181892251 0.023030799884 0.060115267855 0.046468550885 0.04800703588 0.01217323211 0.015268530188 
0.034766086784 0.021778356581 0.020212900149 0.036767020869 0.016173660996 0.019118503489 0.032276643008 0.041566837483 0.050600433097 
0.046621373824 0.09212209002 0.10712120436 0.036446886464 0.036171805364 0.013567012718 0.022759757749 0.028879732667 0.054164328326 
0.057620563796 0.054343087115 0.014573698571 0.015159087708 0.039204406725 0.025586966894 0.023895739487 0.032845323914 0.012136998773 
0.049642373199 0.037196251587 0.03977129553 0.070486032275 0.057628074705 0.091855684785 0.048636562571 0.03441284667 0.012954579444 
0.015411768186 0.028667453524 0.036583125056 0.025418055337 0.029419755331 0.038040856508 0.020010839238 0.0082900957185 0.035923440301 
0.033988570097 0.0094562845026 0.022448970524 0.024667561202 0.035429738351 0.025494750409 0.022738787921 0.031088571548 0.040828992472 
0.058566703418 0.074749573051 0.060873430644 0.019778338991 0.036126499224 0.027383602108 0.0096263320275 0.028299816459 0.02788782619 
0.044863615031 0.041101996247 0.030057856565 0.032178336585 0.025992573589 0.032745474781 0.042385315587 0.034930309984 0.040593136626 
0.022684500333 0.0091560847074 0.021853980062 0.020510382897 0.020084367471 0.030812018517 0.041645547593 0.0337991333 0.029019698886 
0.0072527374036 0.031106984046 0.051710364868 0.025491153508 0.025186059059 0.027137360834 0.020656818688 0.01030339363 0.024701218467 
0.025034962882 0.042805543901 0.057159570798 0.020494736692 0.041495264319 0.047439365737 0.038781923033 0.053610187033 0.056177278213 
0.032129176002 0.026571043029 0.035795585816 0.033597588802 0.056319459406 0.019185674858 0.014690971771 0.021952878215 0.033991156539 
0.0096968664853 0.019552054308 0.03272091921 0.020722713021 0.099099351565 0.058712082377 0.041145693636 0.03659363605 0.033154862598 
0.021428382573 0.018496426394 0.041299854073 0.019683227849 0.02305146523 0.011015889673 0.022335651834 0.052761539299 0.056081749677 
0.022956595796 0.029060207967 0.044248386389 0.040302033257 0.054070375376 0.054835187045 0.04967803839 0.030819296759 0.051108818119 
0.031308712145 0.029198705504 0.047191249521 0.013193409896 0.045625001218 0.030502655935 0.032470595044 0.024233363099 0.0505457415 
0.084077296568 0.10250978343 0.042277669318 0.020048240543 0.019296551033 0.024535266978 0.019456827225 0.016500402837 0.040109412518 
0.023125196804 0.012252491619 0.018698549699 0.043439345893 0.053930160803 0.059426639113 0.032544873092 0.046802378297 0.037019804828 
0.03288042049 0.047984426443 0.043909900492 0.0585259633 0.040167224167 0.034021067387 0.059262000268 0.042713558075 0.052411054113 
0.051461047719 0.028780557917 0.033932874954 0.030052870494 0.011478343483 0.015153360165 0.0067139110517 0.03468026222 0.10262722502 
0.026471174895 0.010499224394 0.051546614168 0.055642765968 0.04228604608 0.031234362538 0.022330985569 0.01732044785 0.016488315423 
0.037545063973 0.043734112112 0.020498286027 0.025604525916 0.0051213891474 0.031794373795 0.049841956212 0.044494141188 0.072202128813 
0.053350531343 0.04989859055 0.059130862332 0.035520466523 0.041659863035 0.03791692866 0.014042463644 0.014397191863 0.063147898699 
0.046229643389 0.048448923142 0.062147419808 0.047682654519 0.043054187126 0.028595755391 0.022962287636 0.020338958189 0.026548095737 
0.0061839840891 0.027435562213 0.019582408226 0.023719468232 0.054313756226 0.020910795126 0.018388234829 0.021395445567 0.014107698999 
0.086422877708 0.12076580746 0.008309980201 0.040758679015 0.021970584306 0.017222481795 0.016019144676 0.0075019513837 0.033946580101 
0.042780225084 0.019408102727 0.020830068432 0.026885113978 0.008909594331 0.011282669694 0.045969249346 0.044018569702 0.032617618257 
0.052105705338 0.031604217103 0.037553792088 0.03306303291 0.031795406484 0.049084067849 0.055536987208 0.057083541076 0.052873016251 
0.040591737024 0.046851955778 0.05037849194 0.049151554982 0.014780254817 0.014789966588 0.021087115381 0.020663334807 0.040147337041 
0.028239632402 0.015264614645 0.023061920535 0.076188963893 0.02959363096 0.022403167587 0.026740522366 0.016821617881 0.028601243983 
0.01966209519 0.075724991282 0.085230211499 0.087085853836 0.054277094839 0.010073623561 0.027544543761 0.020597886085 0.017336681819 
0.012305563025 0.024572416607 0.0915513709 0.0529888163 0.020501700076 0.0053886924715 0.028094900847 0.044050143128 0.015909336253 
0.03330570259 0.021687539304 0.04040777721 0.032130052888 0.069980823325 0.060005332473 0.024940609738 0.029633918713 0.037343985021 
0.034100802286 0.049326257134 0.049568807053 0.047544660907 0.059190355676 0.01911996867 0.022342655163 0.05353835712 0.03802682853 
0.014247934926 0.018100459928 0.020852332191 0.020646368222 0.033682951438 0.016432555551 0.043755298203 0.035777555805 0.037220127611 
0.043848706433 0.041246970354 0.034839498221 0.016911187367 0.035735029849 0.014681187116 0.021355913975 0.027453905185 0.022487479848 
0.052562802252 0.065880482303 0.039797373249 0.02430565416 0.027657626942 0.018209210052 0.031794514569 0.042386024323 0.1222820219 
0.043559322284 0.018707185824 0.0065617710086 0.051505108042 0.02778904784 0.029673878031 0.01948478893 0.033077022691 0.034323089969 
0.047734916456 0.04983859159 0.016847949711 0.0079343842708 0.039230411559 0.038368216412 0.045394827464 0.055606878274 0.047870531354 
0.056227273309 0.032964066674 0.059466260887 0.024837508139 0.03108167648 0.029340619573 0.03609251651 0.068395976729 0.014201393161 
0.020422568471 0.019605070303 0.036547291654 0.037016451867 0.024188714317 0.038618147657 0.0090154719209 0.015038277865 0.015184664706 
0.022621958282 0.020169271134 0.03868973354 0.047518303709 0.1394315189 0.083737008941 0.04502547138 0.053351383452 0.02807678543 
0.041160748549 0.018985079012 0.021051830559 0.018218456523 0.075059913294 0.12847427155 0.052363658504 0.017525616419 0.032333583362 
0.067802834113 0.034134524187 0.010664929193 0.011832099986 0.010620833872 0.032228226927 0.049962932395 0.043118490993 0.029051414803 
0.022523286895 0.021819921541 0.016908846611 0.007278643134 0.037479430058 0.045497483209 0.049889989462 0.064241304051 0.050214833993 
0.052908872585 0.033702628946 0.025353071237 0.048254355211 0.015198813755 0.023972197431 0.024317537495 0.020802006941 0.068806696571 
0.04426594059 0.020604028314 0.020897523328 0.026074723652 0.039436014037 0.15728726056 0.035952018067 0.031679469097 0.030935454522 
0.041789817579 0.027605702889 0.024074420761 0.020179567483 0.023069064103 0.044478068889 0.050306168849 0.029649000012 0.14237264178 
0.076519478834 0.019829247897 0.022192863305 0.014249119655 0.025512920624 0.018963839353 0.021288780016 0.018264344036 0.070966170685 
0.16700700968 0.072026646213 0.060407973665 0.046825288917 0.048636004263 0.06208132473 0.015590298728 0.014328628959 0.019797650536 
0.013450612201 0.010604183249 0.031750022241 0.048991504004 0.040870353127 0.032545441075 0.026313088806 0.0092669242708 0.032981867332 
0.015856036567 0.030377862304 0.022038204543 0.024554154782 0.056800835768 0.010981876575 0.031967364172 0.015194651617 0.030164930624 
0.03871190394 0.047119480103 0.016706531027 0.032428767292 0.032335139161 0.081199537474 0.081795097599 0.021095816116 0.01308459731 
0.017919264022 0.033203802849 0.067403086791 0.033714840457 0.035318909471 0.029363782825 0.018003734252 0.025435361379 0.026158612865 
0.03784041426 0.020138950174 0.017489658647 0.02126749525 0.027241563025 0.031186827702 0.025289309581 0.034645519932 0.049222119885 
0.017795291723 0.021815703409 0.017254132599 0.011178185248 0.032138757074 0.018390441098 0.020197159671 0.020181071012 0.035253306682 
0.11999501038 0.16525831737 0.03053260466 0.039045041397 0.023865045198 0.021173309641 0.025727945604 0.045709363308 0.025326195354 
0.019866720818 0.018815696435 0.02341773818 0.013072138956 0.022235461442 0.024199530576 0.029093934186 0.017014953472 0.036440240618 
0.0062742709982 0.020465194915 0.028058906372 0.034100637585 0.04072266463 0.015483468996 0.039916578131 0.048627835296 0.0048153789466 
0.037569946779 0.012852072504 0.027372972641 0.014524703753 0.031877687325 0.035977211905 0.036320706961 0.014221315083 0.030344977991 
0.034396463968 0.13575120767 0.027978597138 0.025475861978 0.032193047428 0.032193025344 0.053431040323 0.061781207156 0.028544668874 
0.046430944134 0.020388674089 0.040318031147 0.01518504503 0.029037066519 0.044491710516 0.054947532679 0.07601958275 0.028369494758 
0.017664674824 0.028933531627 0.031384012318 0.040328443779 0.027259860537 0.06500664016 0.055881607007 0.059726334978 0.068308664625 
0.052124894643 0.023205042327 0.021511842232 0.016912629752 0.021419580703 0.021171625627 0.01838899413 0.026360824766 0.048386086681 
0.083987061271 0.10693967436 0.11912007656 0.036743680251 0.0209714304 0.010033716501 0.023277868007 0.057228038229 0.025890800259 
0.018078842991 0.021620319137 0.044416249876 0.023674746461 0.0255070796 0.020512736797 0.040452851263 0.007419810512 0.024840271905 
0.019757507267 0.03361683916 0.032849621195 0.039908420943 0.025596124475 0.03001176898 0.039101709148 0.021840057375 0.023717721814 
0.022993538979 0.018160376818 0.052124219713 0.053441277024 0.025225893725 0.030065753154 0.058265934838 0.14635355921 0.19347499521 
0.080764622099 0.023559990616 0.014011209622 0.039741837767 0.025920167293 0.040416605375 0.025305284296 0.041141187512 0.014495836849 
0.036272459144 0.034529409337 0.024789347932 0.076825799814 0.11244521202 0.022223373398 0.022989514341 0.022426513696 0.026030589285 
0.020366664323 0.023197382581 0.020632401491 0.023877189579 0.034639555686 0.064755550494 0.041780656259 0.059226176154 0.066745971736 
0.035149305112 0.02795689397 0.019172583378 0.020274452428 0.02022452399 0.067628644662 0.14986016912 0.1116302991 0.18965618124 
0.083125230807 0.037842674741 0.030587561506 0.011593355274 0.01217660857 0.029397199467 0.015712221759 0.024676662854 0.038272038304 
0.053552096279 0.065785333299 0.022202455861 0.039169169445 0.028045442336 0.03341700093 0.018616433209 0.022471611199 0.024996351019 
0.03192954247 0.031353365104 0.011596055005 0.031680131872 0.019137735741 0.027229504984 0.023515805674 0.046366245883 0.05429969994 
0.060244331158 0.018325832328 0.028411476333 0.0056000937745 0.06035731814 0.061755866689 0.18007179144 0.024192888369 0.023700210028 
0.020194440671 0.02421908753 0.022295641952 0.014228710904 0.024584888226 0.023088834183 0.025746983243 0.024953278906 0.056203160959 
0.064191393112 0.15131489873 0.18719326075 0.016380203778 0.016383988705 0.023666807995 0.026461134073 0.021507143711 0.0289044175 
0.032277301313 0.036766360447 0.060825354852 0.040707635171 0.058240326734 0.024589872479 0.034618686166 0.014680525769 0.021165346408 
0.019175103828 0.02786902675 0.053157682324 0.15178338895 0.057236875998 0.041183319939 0.059578365627 0.038865577588 0.019252292502 
0.012451126154 0.02991982165 0.037245720051 0.026999644475 0.018134263734 0.038626933568 0.060265042694 0.057924396682 0.028646451878 
0.036619387544 0.022329732034 0.02704923206 0.027939257274 0.015322730106 0.018448761667 0.020464687881 0.022070935727 0.021303109654 
0.016623619492 0.016580961686 0.029776669205 0.038955228289 0.018874115463 0.0263850029 0.042390178822 0.030585942731 0.041986673353 
0.055150755001 0.016156806623 0.036903363799 0.0030543327932 0.047910665231 0.056333810621 0.17850049551 0.19835620246 0.11300359891 
0.04926872629 0.020026547093 0.034585165758 0.027075488644 0.096123676142 0.0010289260751 0.032974579101 0.039178050324 0.02329215225 
0.011500235253 0.031275110154 0.019593624251 0.10750649369 0.099963803461 0.24683774342 0.14764706978 0.047029923044 0.023227232455 
0.025323871935 0.018842065847 0.029279865427 0.028744896828 0.070722973951 0.1033893792 0.034797676038 0.068956115735 0.031530018 
0.035071023227 0.027984844781 0.029776262124 0.011344448036 0.021298530783 0.02310858676 0.031087997567 0.10207357924 0.13063362417 
0.052585278673 0.047399525252 0.039554914965 0.043131887354 0.077605564676 0.082066792096 0.04356858244 0.019288835763 0.02320701938 
0.026426595258 0.029991011141 0.035482593921 0.040665601271 0.034346575572 0.028962986027 0.038993454865 0.038200243333 0.023088672826 
0.019767396268 0.041496874008 0.015287807564 0.012750673572 0.020473277066 0.019716989395 0.023842615693 0.018432382094 0.025526275641 
0.038353525875 0.06138170949 0.028512131856 0.039058775365 0.050637446881 0.020398211781 0.026773885274 0.010978795378 0.036898117061 
0.078273981228 0.065238966843 0.047028394028 0.10473084539 0.055261532173 0.023509779597 0.03725278186 0.015621575212 0.022469940265 
0.018553571347 0.021330544852 0.022039182692 0.0079135324079 0.025095440061 0.017888205388 0.027145861913 0.078506279807 0.099073293847 
0.25364438578 0.15526317059 0.19401082826 0.18433603952 0.018955053131 0.018731223285 0.020477135804 0.010673718128 0.012038874661 
0.021356259615 0.060437912646 0.10372837768 0.037186427554 0.055404576377 0.016306568401 0.023884858599 0.027045914065 0.011111913664 
0.024025558041 0.01935479799 0.011533969307 0.024423662197 0.14967253953 0.053005554575 0.089138381823 0.058333838913 0.033098830822 
0.023095279618 0.020619119983 0.028624401063 0.031926575549 0.064980472833 0.044922600782 0.022822388458 0.03706668249 0.020948029492 
0.027952571758 0.031419067333 0.040158878281 0.046869858218 0.02023782649 0.034566303708 0.032491976167 0.046613058065 0.025537664028 
0.02366091664 0.056894537309 0.043719976914 0.021144279222 0.0073629226506 0.014165727847 0.013102378739 0.017757953 0.041776411422 
0.027101310585 0.060568359886 0.04901522911 0.046349596589 0.051831086812 0.025793426887 0.030892395784 0.037748909308 0.026858181062 
0.04468871454 0.051845693568 0.10506062009 0.037383838231 0.021072343075 0.15419243698 0.084773851702 0.042138932799 0.017679342915 
0.032658466972 0.018675652306 0.040948468154 0.028909088251 0.011570638549 0.0233356543 0.017817784745 0.020866821698 0.033474069952 
0.05410726264 0.06578192821 0.10706269714 0.13993547267 0.24917580962 0.059309941533 0.048611580776 0.020715696826 0.010608152478 
0.024961620296 0.031906419678 0.061644532027 0.028364151433 0.037873378123 0.077400020851 0.018215998285 0.01892484965 0.044473942679 
0.012211689259 0.020460832947 0.01124173232 0.018049919654 0.016217479648 0.019982323889 0.020203722029 0.11838710291 0.03653070912 
0.038430088116 0.023796311507 0.013031032636 0.02004054481 0.019119334519 0.01935512574 0.020444913077 0.020972827018 0.020280655632 
0.034861636376 0.024591628687 0.019164340848 0.040066946614 0.027739782094 0.038861272931 0.029953178784 0.024181846071 0.022118084693 
0.027782922848 0.018775671275 0.031314556657 0.023581291176 0.014042322947 0.024070834469 0.03840803218 0.0097471587534 0.045300353755 
0.026462940196 0.012271643502 0.012597366964 0.020601520907 0.043090527798 0.025778828183 0.050861374541 0.048014951999 0.041676276542 
0.050104278268 0.030338585414 0.015803051932 0.0054915898405 0.038313101389 0.039829822275 0.021114240928 0.037685740107 0.038351993278 
0.01910444329 0.02435721662 0.018269797591 0.036909289109 0.035012686619 0.032831024149 0.030965471718 0.02466634325 0.034046605711 
0.033737484337 0.033466213051 0.017081279308 0.01449457247 0.011459427804 0.028895126872 0.02046809635 0.052605184916 0.029923211786 
0.10574521142 0.02857211926 0.1273742294 0.1236331077 0.091885469595 0.12812052126 0.0051913016611 0.12097931176 0.028107610036 
0.021971816035 0.021814709368 0.036626724475 0.046977292157 0.033319722593 0.071544482015 0.03423716909 0.057656066338 0.016846085944 
0.017473668109 0.017787599997 0.034415361727 0.016517120836 0.011561720767 0.021524087837 0.01737082159 0.040604298307 0.10235956354 
0.063939954933 0.025853301418 0.020361795419 0.024262567422 0.015010556396 0.031562838694 0.033090117073 0.02412361514 0.022089883647 
0.0090653636703 0.014531173644 0.020528626049 0.020683713989 0.02404001793 0.033407066876 0.019990994504 0.021729167085 0.021441857428 
0.037081983535 0.042098739954 0.024005629335 0.023507686543 0.029756968689 0.020974403882 0.037217520739 0.030811416673 0.020197115411 
0.041349078561 0.028094912571 0.03400135038 0.0093848486524 0.022309947336 0.049137542954 0.03488817314 0.035648686083 0.035506469979 
0.050202310213 0.022687597237 0.013917800628 0.020126604177 0.035795240379 0.022534993904 0.048118106244 0.021309059445 0.020211647395 
0.02122129001 0.021108739687 0.019114999111 0.027123077604 0.023293844852 0.026491794226 0.024282449252 0.018325722427 0.035759092767 
0.019776992624 0.03562547612 0.036177308143 0.016037130263 0.032928514826 0.022909721722 0.040896215538 0.043369794248 0.041159814033 
0.051562985851 0.039755987161 0.020297570537 0.020394068883 0.033754559276 0.018917958896 0.023975090227 0.022098754902 0.038993265773 
0.085787206127 0.037027401687 0.030540655219 0.05829674493 0.023745993175 0.049941764902 0.0163591391 0.033235421387 0.04511201279 
0.12502739899 0.048118680944 0.15757418954 0.025422607635 0.01934037068 0.015573210688 0.012531848085 0.035577060535 0.052638315856 
0.05397600013 0.10498877997 0.020595748078 0.03786848822 0.041277595539 0.025957192503 0.014694571108 0.029289527811 0.022613534292 
0.019665694493 0.020148048195 0.021653386861 0.064826478821 0.11686031097 0.043165407243 0.025516937625 0.020233910016 0.034649787471 
0.033403421397 0.033110118123 0.054392432267 0.029105161704 0.010813049762 0.01443050926 0.013895187789 0.019617209271 0.0038584552105 
0.0226541544 0.022325643838 0.054653736569 0.020207126034 0.024735040357 0.027775746204 0.039269598151 0.030414177752 0.023582580343 
0.036283826682 0.05443852957 0.057319869165 0.034383770218 0.041302458062 0.037517049159 0.056134392097 0.021286940506 0.025407973354 
0.028075401926 0.056320212681 0.019137866542 0.047664165876 0.021756954004 0.013667746898 0.021830626525 0.021668294901 0.021028256097 
0.018190888586 0.016033109867 0.019559605655 0.022887595208 0.02026173089 0.020225493982 0.018312791781 0.02156553923 0.02112779861 
0.048859890665 0.051422640999 0.020598064016 0.012970909752 0.025897833723 0.024217036487 0.041270099521 0.097784079345 0.026587254339 
0.012371774988 0.038383390972 0.040164077592 0.039682941737 0.03019962984 0.014555181586 0.025240423044 0.064751100709 0.22704979701 
0.019888637466 0.021228711122 0.028276104209 0.013545386278 0.024043813733 0.02187948178 0.020363088256 0.017059270357 0.028847637833 
0.020038683159 0.030264473052 0.060068003316 0.044050454081 0.058288692634 0.14796931625 0.10758926985 0.019437471586 0.015429043861 
0.016063295865 0.016558380592 0.041089451709 0.048771168982 0.059262908374 0.065345404331 0.016970180217 0.04253571226 0.012195942494 
0.038976908464 0.024445734244 0.020604660611 0.019645813859 0.043390701862 0.078493614917 0.049862400674 0.030017081826 0.015206599491 