# vtk DataFile Version 4.2
vtk output
ASCII
DATASET POLYDATA
POINTS 20299 float
16.381 -15.825 1.94167 16.3895 -15.798 1.5388 16.5146 -15.8313 1.56668 
16.8895 -15.9489 1.94167 16.7809 -15.9133 1.8002 16.8895 -15.9186 1.56672 
16.6229 -15.8972 2.08336 16.7646 -15.9412 2.1917 16.7646 -15.9533 2.31678 
17.0146 -15.9961 2.19176 17.1395 -16.0374 2.31674 17.2646 -16.0489 2.19169 
17.2645 -16.0122 1.81665 17.3894 -16.0602 2.06659 17.3896 -16.084 2.31673 
17.5145 -16.08 2.06657 17.5148 -16.1034 2.31683 17.6397 -16.1083 2.1918 
17.6397 -16.1245 2.31677 17.765 -16.1098 2.06687 17.89 -16.1279 2.06689 
17.8897 -16.1645 2.31665 18.0144 -16.168 2.19143 18.1397 -16.1505 1.94178 
18.1394 -16.1863 2.19145 18.0147 -16.1834 2.31673 18.2647 -16.1995 2.19169 
18.2648 -16.1679 1.94177 18.3897 -16.1855 1.94171 18.3899 -16.2129 2.19191 
18.515 -16.2297 2.19204 18.6399 -16.2328 2.06686 18.6399 -16.2494 2.19203 
18.7651 -16.2524 2.067 18.7649 -16.2715 2.19184 18.8896 -16.2602 1.94167 
19.0143 -16.3001 2.06645 18.7647 -16.2928 2.31669 18.5149 -16.2504 2.31701 
18.6397 -16.2956 2.44187 18.3899 -16.255 2.44211 18.39 -16.2309 2.31709 
18.1398 -16.2185 2.44219 18.2647 -16.2643 2.56708 18.5146 -16.3043 2.56696 
18.1398 -16.2765 2.69228 18.0148 -16.225 2.5673 17.8896 -16.237 2.69215 
17.8897 -16.2065 2.56718 18.0148 -16.2005 2.44215 17.8898 -16.1829 2.442 
17.7646 -16.1872 2.56706 17.5149 -16.142 2.56728 17.5147 -16.1717 2.69232 
17.3897 -16.149 2.69239 17.3899 -16.119 2.56737 17.515 -16.1195 2.44207 
17.3899 -16.0979 2.44207 17.2647 -16.097 2.56724 17.2646 -16.0777 2.44184 
17.1397 -16.0728 2.56714 17.0146 -16.0276 2.44171 16.8897 -16.02 2.56705 
16.6398 -15.9591 2.56718 16.6277 -15.9337 2.43006 16.3903 -15.8926 2.56755 
16.3903 -15.8703 2.44207 16.2646 -15.8618 2.56719 16.2649 -15.8379 2.44215 
16.3901 -15.8551 2.31681 16.2648 -15.822 2.31684 16.3899 -15.8441 2.19174 
16.2526 -15.8065 2.17972 16.2766 -15.7883 1.79996 15.8897 -15.6633 1.69164 
16.0138 -15.6971 1.56665 15.7651 -15.6176 1.69155 15.8897 -15.6362 1.31664 
16.0017 -15.6837 1.42973 15.5137 -15.5453 1.91374 15.3899 -15.4802 1.6916 
15.6388 -15.5648 1.53871 14.6389 -15.127 1.59437 14.5117 -15.04 1.28883 
14.639 -15.115 1.34446 14.7644 -15.203 1.78887 14.7635 -15.193 1.53884 
14.8893 -15.2592 1.59448 15.7671 -15.6416 2.06964 14.3879 -14.9724 1.69115 
14.388 -14.9564 1.31613 14.5124 -15.056 1.66381 13.3902 -14.1518 1.56697 
13.2544 -14.1087 1.59489 13.3885 -14.0982 1.4427 13.4987 -14.1492 1.48214 
13.5043 -14.1937 1.5833 13.5869 -14.2212 1.5236 14.6389 -15.138 1.84434 
14.639 -15.1463 1.96933 14.5123 -15.0693 1.91375 14.5125 -15.0614 1.78878 
14.3789 -14.9719 1.82631 14.2516 -14.8698 1.72224 14.2498 -14.8739 1.83554 
14.3947 -14.9945 1.97107 14.2663 -14.9129 2.06715 14.3883 -15.0068 2.094 
14.5123 -15.081 2.03856 14.5258 -15.1064 2.17955 14.3882 -15.0323 2.21923 
14.4873 -15.1137 2.31712 14.3719 -15.0522 2.33372 14.3412 -15.1105 2.57134 
14.1383 -14.9319 2.44132 14.1955 -14.9204 2.28926 13.9969 -14.7788 2.30697 
14.048 -14.7793 2.18235 14.1386 -14.7964 1.94201 13.8937 -14.6151 2.0817 
14.0406 -14.7108 1.94235 13.9163 -14.5921 1.94386 14.0108 -14.6671 1.82594 
13.9443 -14.5974 1.82334 13.8462 -14.5246 1.9354 13.8017 -14.5384 2.05973 
13.7242 -14.4818 2.02417 13.7686 -14.4496 1.91465 13.6472 -14.4265 1.99409 
13.5959 -14.4768 2.07087 13.5231 -14.4022 1.97854 13.5012 -14.4652 2.07354 
13.4378 -14.3973 1.99776 13.4227 -14.4494 2.08357 13.3473 -14.3934 2.06058 
13.3592 -14.4408 2.13507 13.4496 -14.4852 2.13117 13.3851 -14.4972 2.18675 
13.3141 -14.4339 2.1981 13.3241 -14.4779 2.26749 13.2613 -14.4368 2.32901 
13.2472 -14.3613 2.25347 13.2233 -14.3773 2.37391 13.2163 -14.2741 2.31962 
13.1784 -14.2665 2.45204 13.1674 -14.4032 2.57705 13.1397 -14.2827 2.56435 
13.1373 -14.3883 2.6738 13.1022 -14.2904 2.68875 13.1056 -14.3713 2.79193 
13.0703 -14.2889 2.81536 13.1046 -14.4174 2.91205 13.0484 -14.2886 2.94122 
13.0861 -14.4043 3.03493 13.0415 -14.3027 3.0671 13.0774 -14.4085 3.16689 
13.0286 -14.2967 3.1968 13.0766 -14.4334 3.30643 13.1486 -14.5233 3.19018 
13.1697 -14.5374 3.0623 13.2555 -14.6272 3.0852 13.2596 -14.6612 3.31919 
13.1355 -14.5413 3.44276 13.2058 -14.6147 3.4143 13.3044 -14.7206 3.55316 
13.1954 -14.6251 3.66646 13.1349 -14.5492 3.56736 13.1271 -14.5346 3.68207 
13.1504 -14.54 3.83745 13.11 -14.4843 3.77183 13.0506 -14.413 3.71942 
13.0289 -14.41 3.57909 12.994 -14.3365 3.65099 13.0312 -14.3149 3.80247 
12.9893 -14.2294 3.77548 12.9568 -14.2452 3.68923 12.9421 -14.111 3.75162 
12.8942 -14.0488 3.68722 12.9355 -14.0031 3.76953 12.8965 -13.9492 3.73881 
12.9481 -13.9066 3.807 12.9168 -13.8631 3.77361 12.875 -13.9108 3.7278 
12.8666 -13.8447 3.73704 12.8382 -13.8896 3.66942 12.819 -13.7943 3.69162 
12.8029 -13.8306 3.61863 12.8312 -13.9233 3.58534 12.8638 -13.9674 3.6501 
12.8786 -14.033 3.61074 12.9331 -14.2013 3.60172 12.8471 -13.9691 3.50848 
12.8788 -14.02 3.44029 12.8199 -13.8935 3.4161 12.8535 -13.9243 3.30516 
12.9211 -14.0199 3.21974 12.8673 -13.8848 3.14919 12.9229 -13.9626 3.08498 
12.9815 -14.1425 3.17759 12.9685 -14.1632 3.31761 13.0066 -14.2875 3.31754 
12.9733 -14.2583 3.42046 12.9411 -14.1812 3.45754 12.9569 -14.2928 3.55912 
12.9966 -14.3483 3.50943 13.0628 -14.4452 3.45993 13.0012 -14.1772 3.08293 
12.9747 -14.0638 3.04257 13.0146 -14.1602 2.96937 13.0034 -14.0305 2.91442 
12.9498 -13.9048 2.91691 12.8866 -13.8477 3.00246 12.9167 -13.8275 2.82833 
13.0063 -13.8931 2.71319 12.9975 -13.9379 2.82479 13.0461 -13.9964 2.74648 
13.0403 -14.0465 2.81214 13.0429 -14.1599 2.84355 13.078 -14.1455 2.72139 
13.0903 -14.024 2.64845 13.0464 -13.9402 2.66218 13.0664 -13.9493 2.58559 
13.1246 -14.0299 2.55718 13.1201 -14.1516 2.60494 13.1577 -14.1501 2.50286 
13.1701 -14.0484 2.43003 13.1905 -14.1709 2.40262 13.1806 -14.0967 2.36239 
13.2125 -14.1654 2.31703 13.1538 -14.0974 2.21562 13.1929 -14.1957 2.21495 
13.2267 -14.277 2.17883 13.1408 -14.1459 2.08005 13.1908 -14.2192 2.0076 
13.2272 -14.2673 2.03659 13.2205 -14.2276 1.90827 13.2683 -14.2899 1.94622 
13.262 -14.229 1.81197 13.2027 -14.1494 1.76303 13.2875 -14.1775 1.69005 
13.4094 -14.2137 1.66862 13.5229 -14.2472 1.68895 13.5887 -14.2527 1.62724 
13.6267 -14.2331 1.45223 13.6758 -14.2922 1.57055 13.7049 -14.3157 1.43761 
13.7313 -14.3502 1.49063 13.6592 -14.2973 1.6688 13.7179 -14.359 1.73485 
13.9337 -14.5721 1.69196 13.8499 -14.4785 1.46948 14.0625 -14.703 1.62109 
14.2633 -14.8754 1.5945 14.2521 -14.8494 1.2036 14.1553 -14.7839 1.42517 
14.1522 -14.7878 1.6565 22.2646 -16.1258 1.94297 22.1509 -16.1243 1.80614 
22.1974 -16.0774 1.71844 14.128 -14.7501 1.20813 13.9475 -14.574 1.16355 
22.0135 -16.1445 1.69273 21.989 -16.1197 1.55498 22.015 -16.1859 1.81719 
21.7904 -16.2742 1.81783 21.8747 -16.1778 1.59549 22.3969 -16.1111 2.06469 
22.2964 -16.0224 1.69183 22.7782 -15.7341 1.81475 22.71 -15.8241 1.88474 
22.6548 -15.7999 1.71615 22.628 -15.8584 1.81471 22.6494 -15.9556 2.06862 
22.5174 -15.9891 1.93991 22.3916 -15.9262 1.5667 22.526 -16.0971 2.1885 
22.6495 -16.0132 2.1931 22.6003 -16.091 2.29416 22.5218 -16.1542 2.31896 
22.646 -16.1123 2.43562 22.696 -16.0402 2.34352 22.7768 -16.0149 2.44717 
22.7688 -16.0654 2.56574 22.8937 -15.9612 2.56503 22.893 -15.9176 2.44096 
22.9832 -15.8703 2.54455 23.0132 -15.8862 2.6847 22.8932 -16.0002 2.69125 
22.9606 -15.9707 2.81011 23.1013 -15.8622 2.91899 23.0219 -15.9766 3.071 
22.953 -16.0101 2.94178 22.8801 -16.0429 2.80527 22.8293 -16.1467 3.06848 
22.7551 -16.1746 2.93191 22.7219 -16.2294 3.05781 22.652 -16.2551 2.94806 
22.6965 -16.1649 2.71894 22.7818 -16.0912 2.69292 22.6435 -16.1628 2.56577 
22.6007 -16.2262 2.68251 22.5187 -16.2448 2.56571 22.5181 -16.2012 2.44235 
22.392 -16.2741 2.44294 22.3956 -16.2234 2.31256 22.3916 -16.1737 2.19055 
22.2734 -16.229 2.19097 22.1404 -16.2354 2.06676 22.1416 -16.2898 2.19266 
22.0153 -16.2861 2.06684 21.8883 -16.277 1.94378 21.7635 -16.3272 1.94303 
21.6685 -16.3342 1.81584 22.8276 -15.6661 1.75428 22.7167 -15.7151 1.63467 
21.7624 -16.2498 1.6931 21.638 -16.3098 1.69253 21.5171 -16.3693 1.69097 
21.518 -16.3497 1.56525 21.3907 -16.4024 1.69124 21.3909 -16.3819 1.56598 
21.1397 -16.3997 1.69263 21.0146 -16.3976 1.6923 21.1396 -16.3836 1.56689 
20.7624 -16.3972 1.69296 20.639 -16.3882 1.69044 20.7646 -16.3773 1.56655 
21.2646 -16.4381 1.81625 21.2645 -16.4084 1.69186 21.3913 -16.4371 1.81453 
21.5296 -16.4024 1.8273 21.6366 -16.3824 1.9446 21.5206 -16.4554 1.96661 
21.3912 -16.4746 1.93889 21.3905 -16.5101 2.06474 21.5191 -16.5008 2.09221 
21.6388 -16.4375 2.06946 21.6419 -16.5039 2.188 21.7668 -16.4516 2.18792 
21.7672 -16.5066 2.31348 21.8875 -16.3919 2.19217 21.9884 -16.41 2.3143 
22.0155 -16.3429 2.1914 22.131 -16.3551 2.32733 22.018 -16.4469 2.43843 
21.9004 -16.5123 2.55585 22.0514 -16.481 2.58904 22.1419 -16.4087 2.46788 
22.1588 -16.4447 2.58128 22.2666 -16.39 2.56541 22.2667 -16.3401 2.44018 
22.4055 -16.3235 2.59068 22.3643 -16.3827 2.70471 22.4685 -16.3376 2.76338 
22.4193 -16.3915 2.85837 22.2944 -16.4443 2.8023 22.3752 -16.4364 2.94164 
22.5137 -16.3694 3.01455 22.5275 -16.4027 3.20805 22.6303 -16.2992 3.05696 
22.6308 -16.3503 3.29484 22.7604 -16.2599 3.33375 22.6487 -16.3546 3.39243 
22.5182 -16.4294 3.31664 22.4925 -16.4764 3.51941 22.5955 -16.4157 3.53809 
22.7767 -16.2707 3.45603 22.6639 -16.371 3.59487 22.7419 -16.3105 3.56261 
22.7031 -16.337 3.66026 22.7964 -16.2516 3.63412 22.7412 -16.2793 3.71057 
22.6882 -16.3187 3.74411 22.6486 -16.366 3.72458 22.6309 -16.3397 3.81929 
22.5954 -16.3996 3.80679 22.5799 -16.3657 3.87463 22.6161 -16.2845 3.875 
22.56 -16.3227 3.91749 22.5073 -16.4404 3.89101 22.5334 -16.4583 3.81341 
22.4619 -16.5219 3.79279 22.4869 -16.507 3.70602 22.563 -16.4478 3.738 
22.5492 -16.458 3.62083 22.61 -16.4168 3.66626 22.4038 -16.5595 3.70191 
22.2682 -16.5773 3.43667 22.4135 -16.4639 3.19717 22.2657 -16.5589 3.31626 
22.1413 -16.6458 3.46897 22.1753 -16.5799 3.1966 22.3488 -16.4729 3.06616 
22.2543 -16.4892 2.91789 22.1412 -16.545 2.94086 22.0275 -16.6451 3.1795 
[...]
CELL_DATA 40594
FIELD FieldData 1
Area 1 40594 double
0.026161994387 0.02092769094 0.04699498146 0.029576349863 0.0091454859295 0.016080622201 0.024142877716 0.016075165053 0.048118679761 
0.023940483723 0.015965066732 0.015902065673 0.015924100139 0.015855628435 0.0079745918827 0.0079633920934 0.015916991619 0.031954802814 
0.01596087469 0.023936764189 0.015926586566 0.0079715691158 0.0079336819445 0.015868908254 0.015891013126 0.015844617316 0.015874135897 
0.023825258101 0.007986726364 0.0079999552922 0.0080127975905 0.0080291736626 0.023974926283 0.016082604264 0.016041544977 0.016121906426 
0.016115375079 0.0080437566476 0.0080035800707 0.016087115758 0.015940495338 0.016162647939 0.016221127423 0.016333944174 0.016316082878 
0.016307865764 0.0081294953428 0.0080607195196 0.008048242392 0.015985821327 0.0080398495646 0.0079900313829 0.0080031269868 0.0079815007755 
0.032262970711 0.016295857464 0.0081561514487 0.0081620189175 0.00807880983 0.0081071218649 0.0080610094249 0.0080117648445 0.008075632764 
0.0080504989543 0.0080027169799 0.0080677472926 0.016049399596 0.016184997649 0.01619331314 0.016363360552 0.027536180722 0.023499069754 
0.017916467478 0.015676096098 0.0082406531242 0.0082383600889 0.0081697377169 0.0081838634057 0.0081364271718 0.015159188468 0.042711837707 
0.0096993971735 0.017752116557 0.022293608107 0.032392787521 0.029816485167 0.039898962072 0.018316690846 0.017630841751 0.025127147901 
0.050547134312 0.028253479136 0.009812887534 0.0064565364609 0.0054198776433 0.017824234059 0.0089618985745 0.0091589583644 0.0091378913647 
0.0091557214998 0.0094181166564 0.010730358091 0.011423247387 0.0091941390966 0.011873778918 0.019418707346 0.0094912209221 0.0089682471006 
0.010930643141 0.010185284859 0.010337747927 0.0076252976651 0.01612995809 0.032556765438 0.018272281539 0.018920515634 0.015252680124 
0.025894296048 0.026194392684 0.031545772644 0.0091768773212 0.012164133513 0.010086856058 0.0058899706045 0.0060133022202 0.0064598685928 
0.0067378450776 0.0067037813583 0.0060333404108 0.005198615847 0.0063995940465 0.0054800250345 0.0047973146005 0.0040503051296 0.0045321531616 
0.0034087530499 0.0026777942518 0.0033429571506 0.0030234175287 0.0037251747877 0.0039080558935 0.005995909187 0.0044330831065 0.006018128526 
0.0074495373837 0.013023164068 0.0073594499446 0.0063274196592 0.0067304774849 0.0060764608175 0.0056696893833 0.0059414289463 0.0088300816102 
0.0083947592661 0.0071812720083 0.0073488114412 0.0077736082438 0.0088724047689 0.0092330698653 0.0089359342657 0.0082311422795 0.018939335691 
0.022107119018 0.0038435157545 0.011813165609 0.018270350635 0.012195943043 0.0063747000758 0.0089913156512 0.0048144741317 0.0055584769148 
0.010419608709 0.0062225310567 0.0074775165846 0.0075579392186 0.0046174321667 0.0060015656666 0.0071179668994 0.0047242325738 0.0036728532559 
0.0033819288904 0.0028395353041 0.0017592856734 0.0020774662244 0.0023580838131 0.0033974084615 0.0033860008489 0.0036699471251 0.003236523882 
0.0032796869253 0.0029781411468 0.0069114143539 0.0094070213103 0.011292687517 0.005500333092 0.0083402447177 0.012132140429 0.010463314731 
0.0081569179763 0.010454291742 0.0099503765312 0.0091818346706 0.0068587489895 0.0061386704848 0.0064004484751 0.0072178457007 0.0052056312269 
0.0053799451018 0.0045588531299 0.012350822078 0.0066111114666 0.012657894728 0.0058235614833 0.010151435123 0.0075635381377 0.0093213863013 
0.01252398448 0.0099917560998 0.0080361881081 0.0063218819794 0.0064254281187 0.0076740424606 0.0078211945698 0.0091880039264 0.01082253549 
0.0087696270232 0.0073508082784 0.0097047460661 0.0046756121386 0.0057093678374 0.004343592922 0.00602483605 0.0064333597734 0.0070304231873 
0.0085296698355 0.0057422899917 0.0075918213858 0.0045065945957 0.0035611050116 0.0043701932217 0.0061014671416 0.0066181318164 0.0075913816977 
0.0061510394745 0.0055731961144 0.0035266901725 0.0032950496129 0.0059026502332 0.0056138658768 0.0057012090703 0.0060903211774 0.0072619749989 
0.010058995396 0.0041885831944 0.0034103205927 0.0044403165748 0.0045049647733 0.0057018300964 0.0061085145048 0.0069480372382 0.0085231665839 
0.0076760352261 0.0066504942673 0.0065326360186 0.004804489024 0.005056329792 0.0038654111073 0.0043764298504 0.004517179751 0.024886427888 
0.027513200117 0.028129032933 0.029164555551 0.032436942912 0.025554233319 0.016368935977 0.01426763648 0.0091580231868 0.017571369367 
0.057656269848 0.053867653306 0.013659885342 0.027718223363 0.021305681483 0.010740645614 0.0065212308269 0.013132493109 0.019821202976 
0.030584384605 0.020681922342 0.01002161985 0.0082097313638 0.0064648369438 0.0077674032621 0.0073168485471 0.0083107751574 0.010302132942 
0.010010977306 0.0096643919253 0.0078613338599 0.0092798246055 0.010611832294 0.010274638935 0.016618226104 0.021189556253 0.0070255953956 
0.0073150792183 0.017586663425 0.017343181258 0.0089907176456 0.007894405364 0.014541761273 0.012774290205 0.0093746420124 0.010339464213 
0.0093641946646 0.0083616939606 0.008122218764 0.0089920723044 0.0096116882199 0.010506625401 0.0093955876163 0.0099698265518 0.0094016596994 
0.0094332846639 0.0085210396509 0.017373187024 0.010678878711 0.010492483171 0.018804826473 0.009811589004 0.0091638673396 0.0091330245674 
0.026646547171 0.015917180734 0.0088385635931 0.0088892367793 0.01930012353 0.0087815400577 0.035405751773 0.0088516121892 0.0085565289384 
0.0083117810875 0.0079304923894 0.0083035005621 0.0079187146662 0.0080777988873 0.0081147038422 0.0083495324247 0.010014487741 0.0094891219273 
0.010018337392 0.0099379137361 0.00956533978 0.0099484561274 0.0086368137833 0.0086889070082 0.0086800079711 0.0087405060036 0.0090703267812 
0.0091717713723 0.0091344922259 0.016232536631 0.0091539601756 0.010524037203 0.010005881652 0.0097512865249 0.011624855478 0.0098538797377 
0.0068252928609 0.0072606891761 0.0091491600775 0.010518485785 0.0099678245398 0.0086209563558 0.0075900313078 0.009348503796 0.007487956184 
0.0087539613468 0.015271428676 0.013522177303 0.015128181896 0.013911808075 0.021863685813 0.0075559542086 0.0069144386989 0.017143417553 
0.0095516305847 0.013747157397 0.0099725448641 0.0044544622797 0.0040658053634 0.0055841666216 0.0042012975564 0.0028864978745 0.0026509052592 
0.003001638912 0.0033682038953 0.0024781495018 0.0029414598178 0.0024746912774 0.0033261446349 0.004322889144 0.0040786254633 0.0044544974757 
0.0041425334511 0.0053741868764 0.0039133425809 0.0044650983535 0.0039914239486 0.0065132446831 0.0092832521484 0.027675975543 0.037294840902 
0.010267387174 0.00867197855 0.016091521802 0.018286748255 0.021357895663 0.0088091896135 0.016569235113 0.020842965188 0.013283970096 
0.0070610358106 0.0090347679838 0.0083242271622 0.010909915667 0.0084597229031 0.0093837455861 0.0099123174247 0.0069004898797 0.0064932160978 
0.0086801823733 0.010801414042 0.017676343087 0.011882921654 0.0092533754744 0.0095175468008 0.0086636533004 0.0084819888167 0.0084082241907 
0.0084114051844 0.0086807745168 0.0082466373348 0.0082871364869 0.0084566713253 0.0082170295954 0.0082750497884 0.0082309451531 0.008251418027 
0.008182951653 0.0082373486827 0.0081644768507 0.0082592821711 0.0082304141523 0.0081918129551 0.0080904185653 0.0080931139543 0.0080990112497 
0.0080904309732 0.0080106193485 0.0079993228875 0.0079919018502 0.0079803575618 0.0078180056215 0.0079015174765 0.0078793317121 0.0078592892197 
0.0078557793735 0.0078446516849 0.015696557041 0.0079709517112 0.015972178488 0.015947279249 0.0079423528596 0.007943322244 0.007907252582 
0.0079000552584 0.0078548604398 0.0078609133041 0.0078534769878 0.0078481923734 0.0078463616376 0.023690991503 0.01575063012 0.015810534283 
0.0079007603594 0.0079247869923 0.0079159076409 0.0079480603927 0.0079472953449 0.0077603830835 0.007923432062 0.015740918737 0.008303680118 
0.0083335232194 0.0079906981137 0.0079681966408 0.0080319505038 0.0081118751954 0.0082324419357 0.0082706032803 0.0081616431171 0.0081436246112 
0.0078531548463 0.0079398381423 0.008157592799 0.0081948977305 0.0090438825013 0.0090904034065 0.0081977902797 0.0077467431318 0.0077178811516 
0.008301018204 0.0082970489704 0.0082696167483 0.0083020052108 0.0082818102017 0.0082504945316 0.0088935773758 0.0085962337096 0.0082180050402 
0.0081635540331 0.008165026668 0.0081274905824 0.0080716513939 0.0080772918225 0.008027410793 0.0080407851084 0.0080052882818 0.0080713467245 
0.0079741002745 0.0081261214545 0.0081377698035 0.016224621289 0.0242857226 0.029515393998 0.016469832417 0.0079867518727 0.0079696677465 
0.0079280964308 0.0078934687646 0.015882071325 0.015750617884 0.01586654843 0.0079446894577 0.0079169719754 0.0078871851738 0.0079371625093 
0.0079168119157 0.0079780595794 0.0087545106634 0.0090072175254 0.010177614028 0.0087202384126 0.0096145004313 0.0093816739747 0.010223922658 
0.017097067238 0.015273804484 0.017635365151 0.0091326569997 0.0084231618805 0.0083940158506 0.0083689513319 0.0083415495614 0.0083679814419 
0.0083370865245 0.0083126751864 0.008281823712 0.007432649038 0.0081407959591 0.0077471900196 0.0082142823147 0.0096284054108 0.0096518495089 
0.0081797579223 0.0078536094113 0.0079774197737 0.0082712249129 0.0087239795774 0.0089450161441 0.0077464505844 0.0082522907251 0.0080014973562 
0.008085259624 0.008334518581 0.0085831297406 0.008754989959 0.0083318499497 0.0081071699437 0.0083098753041 0.0085731853516 0.008698324763 
0.0083747875411 0.0083493836182 0.0083622489254 0.0083573449657 0.0083132621153 0.0082841575209 0.0082777362578 0.0090505033489 0.0094623507418 
0.009280361675 0.013391921504 0.00846663207 0.014952503268 0.0083960881279 0.0097935082137 0.0094487690137 0.0094466440695 0.0081373579103 
0.0089102055041 0.009966132346 0.0080280818964 0.0098801930131 0.0091859176224 0.0085213422074 0.023043031648 0.028991606672 0.024280271812 
0.0084044058436 0.0083317467451 0.0081160356397 0.0090503546835 0.0090318399762 0.0080571953312 0.011159864804 0.0090228868451 0.014307820925 
0.016080998571 0.0081258868451 0.0081447314274 0.0081239428769 0.0081213649197 0.0082381632624 0.00826058545 0.008220629616 0.0083498766592 
0.0082071639964 0.0082095839106 0.0083671821601 0.0083416358073 0.0083274829571 0.0083230727909 0.0083372821628 0.0083148772823 0.0083109650225 
0.0083304247698 0.0083171549484 0.008312170151 0.0089868849029 0.0089700108675 0.0082806136457 0.0081949077733 0.0081580908983 0.0081668885734 
0.008151504345 0.0081395205006 0.0082070463516 0.008120232771 0.0080651293089 0.0080643436214 0.0080218872998 0.0079996839144 0.0079962918753 
0.0079792502846 0.0079732496446 0.0079642581251 0.0079672196629 0.0079620108011 0.0079708089885 0.0079348202311 0.0079247017492 0.0078769240431 
0.0078938333591 0.0079650951547 0.01576213056 0.031516164661 0.017253616479 0.012938169219 0.013984210375 0.0076001347271 0.0093048767276 
0.0085850389556 0.0083985133506 0.0066806181866 0.0089573486175 0.010699798381 0.010975375962 0.01424861826 0.015224589965 0.0084795590541 
0.0069667274604 0.0055420980057 0.0056851946899 0.0052916230272 0.004243731247 0.004814095852 0.0050731627131 0.0063692985426 0.0085222899749 
0.009402973609 0.0090153291181 0.0080556872259 0.0064936320914 0.006530778343 0.0064409654167 0.0069002744563 0.0077393375415 0.0077929591545 
0.0082904288778 0.0079812281909 0.00776225139 0.0074595993464 0.0086777152489 0.015677570723 0.008154321024 0.0078444127848 0.0078528409025 
0.0078641409949 0.0078603023254 0.0078609355124 0.0078558329431 0.0078464525092 0.0078602056049 0.0078725944077 0.0078783486751 0.0078883668347 
0.0079188506559 0.0078919019882 0.0078951794403 0.007924654941 0.0079024603338 0.0079128550535 0.0079456440419 0.0079074418088 0.0079203169421 
0.0079618456131 0.015969163975 0.01606335017 0.0080686663369 0.0080700251011 0.0080872550913 0.0081544136186 0.0081404472595 0.0081776221296 
0.0085009065188 0.0086456287751 0.008242124357 0.0082517879437 0.0074295761349 0.0074611952346 0.009239063387 0.0082111596608 0.0079588014378 
0.0083213172624 0.0083182715748 0.0083064989772 0.0083089662566 0.0083639831952 0.0083146926722 0.0083116530288 0.0083642386023 0.0083630802577 
0.0083771844309 0.0084093920139 0.0083753466797 0.0083571452127 0.0084170171687 0.0084047793957 0.0084129285468 0.016877533239 0.0084069352459 
0.008356005155 0.0083662495773 0.0083710787681 0.0083208166574 0.0082954037301 0.0083048229936 0.0082744650892 0.0082365998406 0.0082160719891 
0.0081895294031 0.0081872580301 0.0081670994373 0.0081515579384 0.0081888355586 0.0081964150727 0.0081649675146 0.008164491086 0.0081247188967 
0.0081233513388 0.0080891467286 0.0080541447028 0.0080455585846 0.0080145893845 0.0079636961391 0.0079402167886 0.01588246365 0.015829887237 
0.015789007488 0.015805069176 0.0078705697811 0.0078758167011 0.0078729722702 0.0078661776512 0.0078625851188 0.0078572090885 0.0078593227715 
0.0078495911466 0.0078490038202 0.0078497525871 0.0078453370286 0.0078430139309 0.0078559630775 0.0078569386705 0.0078496331344 0.007869624998 
0.0078638765454 0.0078601008425 0.0078750797921 0.0078715492886 0.015864359308 0.015185305817 0.0078842255584 0.023735080805 0.023734950384 
0.0079653791278 0.0080106325586 0.0081167172914 0.0080843975738 0.0080777207697 0.0081042195715 0.0080684063784 0.0080800108603 0.0080975478109 
0.0081071247253 0.0081510008714 0.0081736191357 0.0081350227469 0.0081695712506 0.0081673868525 0.0084120217407 0.0082270558078 0.0080045603175 
0.0082761631442 0.016961962887 0.025127397569 0.024280568239 0.01692729821 0.017342830813 0.0084681992529 0.0083452665416 0.008238685951 
0.01711306875 0.016903708778 0.0088743589874 0.0084363756256 0.01620077848 0.016323446494 0.033628935139 0.025212330035 0.016754575737 
0.031310173608 0.01541493843 0.0082615386076 0.00822827723 0.0081485802413 0.018139861876 0.016196723327 0.016216865015 0.016319511795 
0.024619743255 0.024795773214 0.02478027586 0.016492998456 0.016486552722 0.016636234811 0.016667807351 0.0167691965 0.0083928483912 
0.01679319468 0.016882353582 0.050413290895 0.050151053537 0.033312856045 0.016487132835 0.0082421062782 0.0082519154864 0.016489272004 
0.016467724994 0.0332943072 0.033533288184 0.016816987435 0.0084222632042 0.016888410237 0.016790377896 0.0084020646045 0.016806749494 
0.016871961619 0.008478572946 0.016920264515 0.016745254214 0.0083581778875 0.0082619438679 0.016526397206 0.0082779189774 0.01656641101 
0.0083753378713 0.016342074566 0.0082763026934 0.016581763417 0.033273561886 0.033297873922 0.042066996224 0.016778334221 0.016935385773 
0.016984033643 0.037508632219 0.049084082676 0.01547749795 0.023334895988 0.0086128692364 0.0086213727111 0.0086745272638 0.0086776693099 
0.0087010216694 0.0086656738751 0.0086816733672 0.0087636057181 0.0087352878871 0.01735979748 0.017094906894 0.025672602768 0.025762261637 
0.025787441861 0.025461536991 0.016918320564 0.0083507633471 0.0083357755679 0.0083366631274 0.0085392917241 0.0085952109194 0.016626302542 
0.016695118076 0.016547893355 0.0082201084242 0.016583327506 0.014307356297 0.007631001133 0.019726243264 0.017515604529 0.016396857145 
0.043592619603 0.048282254162 0.0078885288189 0.016241004936 0.018935951909 0.0098453437419 0.015997423605 0.016711046535 0.0085736100007 
0.0084686954987 0.0085108209673 0.0085510612404 0.0092418813557 0.028170335888 0.020256324525 0.018524216202 0.017702781931 0.017748198546 
0.0089656862398 0.0096855305404 0.020784042038 0.016865858661 0.008853471472 0.007972117819 0.015202640971 0.018823355243 0.0135410704 
0.010877676064 0.013351992949 0.0078949581789 0.022020055473 0.022697294265 0.035298653885 0.040681777996 0.02656300933 0.015832159657 
0.007933164846 0.015960464809 0.03167213077 0.047616800421 0.025860433231 0.019068076096 0.0086405387783 0.016567334349 0.015038978603 
0.0076962310151 0.011108609376 0.0088479900308 0.0085122424166 0.026211186825 0.025694262476 0.025464624272 0.018651478157 0.0085911360726 
0.0084598886399 0.023914533728 0.023830360295 0.024035016768 0.023864221735 0.023933139098 0.018226115829 0.026128204822 0.0070359226506 
0.0070515350434 0.011436021148 0.009179328483 0.012338316702 0.021060460964 0.026913549207 0.010074549215 0.0060176165477 0.013934719687 
0.01963932232 0.010480468364 0.0090908127003 0.011840661289 0.01990252233 0.0098183636161 0.01023362387 0.011546096553 0.011664652898 
0.0090664783829 0.0092076788058 0.0069124258933 0.0097222758572 0.0087916543447 0.0053138642871 0.0097371737049 0.017484492933 0.0097048776389 
0.010168866522 0.0082526349797 0.0082682037151 0.0099809073297 0.0073347193922 0.0075016214004 0.0050292457561 0.0035596779246 0.0042543881929 
0.00441849314 0.003252833931 0.0025879533536 0.0034891676692 0.0020624254506 0.0033976918695 0.007253724508 0.0058394583447 0.0031828603018 
0.0054375991572 0.005522467394 0.0043883623049 0.0037751808586 0.00595331618 0.0042910387314 0.0067014942126 0.0081766065451 0.0059722848562 
0.0065270109519 0.0046899118301 0.0046793090493 0.010243815015 0.0051836499085 0.0046612670005 0.005162952913 0.0064771692072 0.005691830441 
0.0050113228825 0.0057645751844 0.01682954618 0.0064547359217 0.0072563204976 0.0078954808449 0.0053547008954 0.0075082191302 0.0077932897444 
0.0078381541521 0.00783761623 0.0069694849988 0.0042017588378 0.0087875554223 0.006720026291 0.0046581779351 0.0045916756555 0.0032510990939 
0.004575803713 0.0040423459521 0.0044620261882 0.005192432942 0.0073675363736 0.0055703471954 0.0033221583036 0.0054706805478 0.012635602821 
0.0076097614626 0.0078576404822 0.008896940559 0.0092649302333 0.0089357541468 0.008980034298 0.0089776093058 0.0084651959407 0.0096928722961 
0.0099239393792 0.011138904488 0.0085507982458 0.02123831601 0.013692664873 0.010182092377 0.010177394297 0.0068860380562 0.0086443047973 
0.0078790027399 0.0064210323681 0.0047245255044 0.004287456503 0.0063011709995 0.0044163280951 0.0035957242263 0.0041410865877 0.0045524871247 
0.0035785263437 0.0033098205574 0.0030860348427 0.0025501258315 0.0046524499268 0.0035751040482 0.0029466186964 0.0034683035021 0.0045611450041 
0.0075045713148 0.006603232767 0.0022570090471 0.003678467658 0.0059535499997 0.004275757517 0.0036082469314 0.0030528291079 0.0031052503725 
0.0036677463052 0.003350051599 0.0026788142337 0.0037742139404 0.0044534856902 0.006176302464 0.0048758626134 0.0038981301819 0.0034977832666 
0.0064182645847 0.0058200157761 0.0063645755652 0.0049170307576 0.0058257196226 0.0047060221112 0.0036029689004 0.0035998012018 0.0037894929773 
0.0036085041615 0.0057180135805 0.0057158291129 0.003351960557 0.0033686196229 0.0038097564034 0.0048282521524 0.003465192948 0.0052016619452 
0.0067285320721 0.0060680571366 0.0049744491167 0.0060583611048 0.0054538514508 0.0048189109216 0.0047263013937 0.0047472394581 0.0058617580726 
0.0057455461847 0.0057341275755 0.0078460466234 0.0079506495945 0.0081034850757 0.0081059415253 0.016300734711 0.008046159248 0.0074718852089 
0.0056777634779 0.0062848289295 0.010658937453 0.0077741660762 0.0064627555591 0.007174358756 0.014187322519 0.016131000914 0.008073352755 
0.0080427469434 0.0089069623127 0.0090792092603 0.0097549682478 0.0075033868908 0.0077398983655 0.006717295471 0.008232238633 0.0075148731652 
0.0056220178532 0.0053694386184 0.0073415405667 0.0052621249833 0.0055028243795 0.004501065872 0.005734614435 0.0065021952765 0.0066648581802 
0.0086748835893 0.0094845401196 0.0086940738412 0.007875846001 0.01574591495 0.015742467654 0.015732337981 0.0078805619541 0.0079002584845 
0.015800116973 0.01579375707 0.0079008045673 0.0079184127697 0.0079692895897 0.0079244700952 0.0079652134942 0.0086021685704 0.0082194026596 
0.0084654464011 0.008556477059 0.0084059912768 0.0082889963062 0.0081665374812 0.0085252986365 0.0086692219287 0.0087249496098 0.010313837273 
0.0088289306071 0.0071552309945 0.0099090931652 0.0072299018891 0.0090328172959 0.01093745407 0.012518765221 0.0065151576736 0.0035668370199 
0.010282551803 0.0088523508016 0.00925085454 0.0081008618469 0.0068277491617 0.0054158160711 0.010500240792 0.0093329109887 0.0078483604706 