# vtk DataFile Version 4.2
vtk output
ASCII
DATASET POLYDATA
POINTS 20304 float
24.4935 -11.4305 1.84929 24.4916 -11.5437 1.73595 24.4797 -11.4304 1.59886 
24.5106 -11.6807 1.9745 24.4881 -11.681 1.72379 24.4724 -11.9309 1.8494 
24.4718 -12.0556 1.97496 24.4496 -12.0558 1.84935 24.4465 -12.1804 1.97536 
24.4815 -12.1813 2.0988 24.4218 -12.43 2.10019 24.4566 -12.4301 2.22493 
24.4288 -12.556 2.22454 24.4665 -12.5563 2.34838 24.4315 -12.6808 2.34909 
24.4661 -12.6811 2.47451 24.4273 -12.806 2.47448 24.4626 -12.8062 2.59866 
24.4179 -12.9302 2.59927 24.4504 -12.93 2.7247 24.4098 -13.0557 2.72419 
24.4434 -13.0553 2.84931 24.4864 -12.9311 2.84877 24.4772 -13.0556 2.97374 
24.4358 -13.1809 2.97391 24.466 -13.1814 3.09853 24.4225 -13.3061 3.09874 
24.4908 -13.1647 3.20712 24.4097 -13.4201 3.23516 24.4632 -13.301 3.36304 
24.4237 -13.4321 3.37943 24.4527 -13.3426 3.46551 24.4811 -13.2371 3.51539 
24.4319 -13.3569 3.57587 24.477 -13.1982 3.61721 24.4283 -13.2059 3.70878 
24.4931 -13.1209 3.65311 24.5085 -13.1344 3.557 24.5251 -13.0597 3.61033 
24.5405 -13.05 3.46236 24.5542 -12.9884 3.52824 24.5706 -12.9365 3.36161 
24.586 -12.8873 3.4824 24.6065 -12.8055 3.37702 24.6148 -12.7832 3.50706 
24.5913 -12.8427 3.59167 24.6162 -12.7491 3.6382 24.5773 -12.8051 3.71336 
24.5615 -12.87 3.6824 24.565 -12.9226 3.6082 24.5345 -12.9326 3.7105 
24.5282 -12.9932 3.66198 24.4947 -12.9832 3.75112 24.4945 -13.0571 3.7131 
24.4193 -13.0034 3.78758 24.4071 -13.0891 3.77576 24.3587 -13.0467 3.81808 
24.3244 -13.1182 3.80824 24.3036 -13.1907 3.79697 24.188 -13.1953 3.83527 
24.2398 -13.0553 3.84728 24.0897 -13.1748 3.87866 24.0264 -13.3197 3.8842 
24.1621 -13.2851 3.82509 24.1218 -13.4177 3.81071 24.1914 -13.5036 3.76744 
24.1111 -13.5551 3.78524 24.1892 -13.6747 3.73689 24.2656 -13.5735 3.71593 
24.2748 -13.457 3.73918 24.3129 -13.4976 3.69814 24.3285 -13.4218 3.71308 
24.3604 -13.4528 3.66739 24.3978 -13.3571 3.65329 24.3763 -13.3005 3.72387 
24.3223 -13.2512 3.76821 24.4354 -13.1455 3.73551 24.4062 -13.4325 3.59222 
24.4258 -13.4326 3.48083 24.3759 -13.5554 3.55936 24.4009 -13.5156 3.43928 
24.3759 -13.5933 3.47353 24.3803 -13.5506 3.34532 24.3417 -13.6445 3.35566 
24.3496 -13.639 3.52696 24.3309 -13.7062 3.48668 24.326 -13.6753 3.59262 
24.3422 -13.5993 3.61452 24.2794 -13.7263 3.6374 24.3682 -13.5071 3.62613 
24.3033 -13.7584 3.55588 24.2741 -13.8188 3.6023 24.2381 -13.7828 3.67954 
24.2101 -13.8679 3.66036 24.2393 -13.9181 3.58708 24.3001 -13.7912 3.47675 
24.2424 -13.9342 3.4826 24.2688 -13.8549 3.42961 24.3037 -13.7503 3.38599 
24.2643 -13.8162 3.3106 24.2234 -13.9313 3.35168 24.1714 -14.038 3.32307 
24.1811 -13.9092 3.11 24.1505 -14.0422 3.22404 24.13 -14.1364 3.32946 
24.0887 -14.1868 3.23683 24.1194 -14.0482 3.09264 24.0653 -14.1774 3.10426 
24.0376 -14.2917 3.22398 24.0569 -14.2898 3.32969 23.9945 -14.4151 3.32391 
23.97 -14.4322 3.22403 23.9132 -14.564 3.32944 23.9002 -14.5562 3.19649 
23.9445 -14.4312 3.09954 24.0046 -14.3064 3.09871 23.9733 -14.3051 2.9741 
23.9206 -14.431 2.9746 23.94 -14.3032 2.85041 24.028 -14.0555 2.75209 
24.0315 -14.1814 2.97371 24.0975 -13.9592 2.8486 24.192 -13.8028 2.97847 
24.2789 -13.6713 3.0986 24.261 -13.5556 2.84926 24.326 -13.556 3.09884 
24.3015 -13.6856 3.23651 24.3544 -13.5564 3.22387 24.3765 -13.4314 3.09872 
24.3121 -13.4313 2.84901 24.3929 -13.3065 2.97379 24.3598 -13.3064 2.84873 
24.3235 -13.3055 2.72461 24.3683 -13.181 2.72407 24.4027 -13.1809 2.84906 
24.3763 -13.0558 2.599 24.3333 -13.1806 2.5993 24.3412 -13.0551 2.47453 
24.2653 -13.1805 2.34921 24.3084 -13.055 2.34958 24.3544 -12.9315 2.34901 
24.3229 -12.9315 2.22437 24.3608 -12.8058 2.22428 24.3278 -12.8053 2.09959 
24.3632 -12.6808 2.09935 24.3967 -12.681 2.22424 24.3958 -12.5561 2.09965 
24.3685 -12.5565 1.97393 24.3965 -12.4309 1.97409 24.3707 -12.4308 1.84921 
24.34 -12.5559 1.84938 24.4896 -11.8059 1.84929 24.474 -11.8059 1.72422 
24.4057 -12.1808 1.72404 24.4537 -11.9307 1.72442 24.3594 -12.3061 1.59937 
24.2987 -12.8052 1.97469 24.2747 -12.8056 1.84936 24.3067 -12.6804 1.84946 
24.3316 -12.68 1.97491 24.2943 -12.932 2.09929 24.2686 -12.9323 1.9739 
24.2494 -13.0561 2.09959 24.2251 -13.0568 1.97433 24.2413 -12.9312 1.84914 
24.3454 -12.4301 1.7248 24.3142 -12.5552 1.72477 24.2535 -12.8052 1.72653 
24.2854 -12.6809 1.72431 24.2147 -12.9264 1.72262 24.2023 -13.0569 1.84913 
13.8691 -14.3774 1.60793 13.8648 -14.3692 1.47445 13.9699 -14.4369 1.5957 
13.7934 -14.3538 1.64836 13.7173 -14.3457 1.73615 13.6929 -14.3096 1.60519 
13.6126 -14.3201 1.72421 13.5041 -14.256 1.6863 13.6126 -14.2771 1.59921 
13.4868 -14.2101 1.61871 13.6126 -14.2446 1.47421 13.7572 -14.3223 1.50268 
13.4686 -14.1382 1.50391 13.4029 -14.1727 1.69149 13.3183 -13.927 1.42513 
13.4007 -14.0503 1.46771 13.2968 -14.0481 1.68033 13.3279 -14.1481 1.78497 
13.2145 -13.9829 1.75113 13.227 -13.9259 1.6246 13.1558 -13.7968 1.57853 
13.1159 -13.8184 1.71226 24.4708 -11.3051 1.59883 24.4652 -11.1803 1.72393 
24.481 -11.2939 1.83763 24.4729 -11.1528 1.84938 24.4838 -11.0672 1.9863 
24.4604 -11.0276 1.84919 24.4791 -10.9189 2.08822 24.4424 -10.8058 1.97447 
24.4019 -10.4306 2.09928 24.4943 -10.8055 2.22502 24.4078 -10.3224 2.24133 
24.4785 -10.5557 2.32203 24.4301 -10.3067 2.3508 24.5488 -10.431 2.60046 
24.5602 -10.6801 2.47452 24.5338 -10.8051 2.35011 24.5826 -10.8099 2.47797 
24.6201 -10.6914 2.60965 24.6377 -10.8296 2.60573 24.6077 -11.061 2.47747 
24.5548 -10.9304 2.36359 24.5783 -11.1691 2.36235 24.5414 -11.1808 2.22461 
24.509 -11.0551 2.12698 24.5138 -11.1806 2.09933 24.4932 -11.2083 1.97442 
24.5171 -11.3058 2.09984 24.5454 -11.3059 2.22524 24.5528 -11.5558 2.22481 
24.5864 -11.4308 2.34996 24.583 -11.306 2.35027 24.6827 -11.4023 2.60998 
24.587 -11.5559 2.35041 24.6813 -11.5293 2.61625 24.7308 -11.4391 2.7269 
24.722 -11.5579 2.7251 24.633 -11.6807 2.47344 24.6732 -11.8058 2.59779 
24.7526 -11.8057 2.84707 24.7731 -11.4563 2.86072 24.7933 -11.5556 2.97332 
24.7975 -11.4304 2.97325 24.8102 -11.5556 3.09898 24.828 -11.4306 3.22425 
24.8177 -11.6807 3.22438 24.8359 -11.6806 3.35726 24.8626 -11.5279 3.47744 
24.8599 -11.6688 3.48598 24.8481 -11.804 3.4767 24.8646 -11.7953 3.58035 
24.842 -11.9157 3.57421 24.8313 -11.932 3.47546 24.8282 -11.806 3.34908 
24.8112 -11.9308 3.34932 24.8101 -11.8059 3.2243 24.8045 -11.6807 3.09896 
24.796 -11.8058 3.09902 24.7773 -11.8058 2.95935 24.7828 -11.9309 3.09893 
24.7939 -11.9306 3.22449 24.7769 -12.0556 3.22428 24.7907 -12.0554 3.34948 
24.8092 -12.0572 3.47557 24.7848 -12.1908 3.49063 24.7939 -12.1627 3.58015 
24.8181 -12.0388 3.57572 24.8004 -12.0791 3.73071 24.7717 -12.2269 3.67802 
24.768 -12.2649 3.61825 24.7384 -12.3197 3.7343 24.7244 -12.3886 3.68054 
24.7509 -12.3305 3.5567 24.7539 -12.3066 3.44741 24.7724 -12.1812 3.34923 
24.7491 -12.2899 3.33249 24.7582 -12.181 3.22398 24.7646 -12.0561 3.09873 
24.7402 -12.1806 3.09894 24.7442 -12.0561 2.97345 24.7652 -11.9262 2.96474 
24.7368 -11.9369 2.84596 24.7153 -12.0556 2.84858 24.7003 -11.9309 2.7236 
24.6814 -12.0559 2.72316 24.6595 -11.9309 2.59759 24.627 -11.8062 2.47347 
24.6094 -11.9308 2.47496 24.5798 -11.806 2.3506 24.5656 -11.9305 2.35061 
24.5465 -11.8057 2.22496 24.5539 -11.6808 2.22457 24.5873 -11.6811 2.35046 
24.5271 -11.5557 2.09961 24.5291 -11.6807 2.09938 24.5117 -11.5723 1.99114 
24.4983 -11.3334 1.97459 24.4504 -11.0553 1.72405 24.3837 -10.6805 1.62703 
24.5245 -11.8057 2.09935 24.5365 -11.9305 2.22481 24.4948 -11.9312 1.97402 
24.1504 -13.193 1.83712 24.1246 -13.1645 1.58271 24.1785 -13.0562 1.72464 
24.5018 -12.056 2.09904 24.5292 -12.0559 2.22373 24.5523 -12.0556 2.35002 
24.5884 -12.0556 2.47605 24.5658 -12.1805 2.4761 24.6133 -12.1813 2.59835 
24.5798 -12.3047 2.60089 24.5422 -12.3052 2.47545 24.5368 -12.1807 2.3496 
24.5183 -12.3059 2.34867 24.5147 -12.1815 2.22305 24.4875 -12.3061 2.22364 
24.4959 -12.4313 2.34781 24.5228 -12.4309 2.47451 24.499 -12.5563 2.47417 
24.5317 -12.556 2.59944 24.5533 -12.4301 2.60083 24.5684 -12.5561 2.72391 
24.598 -12.4304 2.72394 24.6064 -12.5565 2.8482 24.5659 -12.6806 2.84906 
24.5956 -12.6803 2.97373 24.5574 -12.8059 2.97354 24.5857 -12.794 3.11061 
24.5431 -12.9307 3.09881 24.5611 -12.9308 3.22385 24.6297 -12.6806 3.19623 
24.5373 -13.0563 3.34904 24.5262 -13.0562 3.22373 24.4982 -13.1814 3.3212 
24.5043 -13.1737 3.43825 24.5059 -13.0561 3.09852 24.519 -12.9313 2.97339 
24.6591 -12.5567 3.09863 24.67 -12.556 3.22407 24.6459 -12.6811 3.44764 
24.7164 -12.4189 3.36127 24.6905 -12.5274 3.54554 24.6505 -12.6633 3.5783 
24.7204 -12.4316 3.5927 24.6407 -12.6647 3.66569 24.6058 -12.7123 3.74005 
24.6381 -12.6152 3.73887 24.693 -12.4904 3.66537 24.6928 -12.452 3.72881 
24.6487 -12.4712 3.78046 24.6803 -12.4053 3.76694 24.6375 -12.4009 3.82737 
24.6083 -12.4583 3.84011 24.5731 -12.5143 3.84241 24.4976 -12.4699 3.86869 
24.4175 -12.5541 3.87782 24.5311 -12.5876 3.8463 24.4563 -12.7074 3.85387 
24.4986 -12.8083 3.809 24.4479 -12.8647 3.8225 24.4894 -12.9123 3.78652 
24.5305 -12.8534 3.7554 24.5586 -12.7514 3.77159 24.5976 -12.6498 3.77969 
24.6229 -12.5586 3.7916 24.3805 -12.8095 3.85668 24.3348 -12.6803 3.88783 
24.2625 -12.8049 3.89207 24.3237 -12.9399 3.85034 24.1242 -13.0558 3.88888 
24.1313 -12.8267 3.94965 24.1851 -12.6937 3.9491 24.0485 -12.8089 4.01312 
24.0003 -12.9296 4.01412 24.0917 -12.9817 3.92884 23.9695 -13.0662 3.99852 
23.9979 -13.1396 3.94855 23.9222 -13.2718 3.98232 23.885 -13.1687 4.06019 
23.8249 -13.2755 4.09537 23.9063 -13.394 3.95708 23.9824 -13.457 3.87184 
23.8919 -13.5578 3.91344 23.9889 -13.5758 3.8342 24.0995 -13.6713 3.77123 
23.9992 -13.7127 3.79838 24.0634 -13.8062 3.75801 24.1749 -13.8056 3.71563 
24.0632 -13.9225 3.73517 24.1547 -13.9021 3.69418 24.134 -13.9854 3.6676 
24.0745 -14.0345 3.69712 24.1239 -14.0339 3.6619 24.0811 -14.107 3.66251 
24.1537 -14.0776 3.59621 24.1838 -13.9916 3.61413 24.2094 -13.9922 3.52856 
24.1792 -14.0576 3.49635 24.2001 -14.0067 3.43061 24.1478 -14.1216 3.42822 
24.1145 -14.1964 3.49302 24.115 -14.157 3.59421 24.0811 -14.2322 3.55337 
[...]
CELL_DATA 40604
FIELD FieldData 1
Area 1 40604 double
0.014211208023 0.01728116381 0.0080929042719 0.0081171449283 0.0081614563151 0.016386788402 0.016534728744 0.0083335669013 0.0083285330579 
0.0083493584335 0.0083955006212 0.0084830182842 0.0084154749316 0.0084764124118 0.008510874721 0.0085287816809 0.0085245813125 0.0084634595256 
0.0084466183577 0.0084812277734 0.0084405629915 0.008445207196 0.0072700439193 0.016968376249 0.019058775312 0.0098843809993 0.0066652777515 
0.0066677129516 0.0065817201316 0.0077488628782 0.0088424651917 0.0044083068266 0.0036953480238 0.0035161521809 0.0060332514599 0.0051249093692 
0.0070469546558 0.0075825444387 0.0078075096171 0.0067314206988 0.0053668600855 0.0055900286389 0.0052807040417 0.0036451868855 0.0036250683163 
0.0033093507076 0.0036188139968 0.0049876856718 0.002887009022 0.0034035013801 0.0035793880378 0.0046551620991 0.0028600345917 0.0029444010268 
0.0031161628841 0.0045016682781 0.0080545930294 0.0081467425189 0.0084755419955 0.006480205253 0.0095367384034 0.0068713833969 0.005678800227 
0.0073007214783 0.0073375828161 0.0052496177606 0.0031414624631 0.0022435769956 0.0021700193972 0.0032582045934 0.0051099182489 0.0048135330036 
0.0046226072144 0.0079646003791 0.0042016226932 0.0052423418936 0.0058880877233 0.0040478049966 0.0032745000928 0.0044611520448 0.0072335933846 
0.0061733454836 0.004152635041 0.0045304377124 0.0063260829552 0.0047512696803 0.0058302023905 0.0031653730975 0.003058571971 0.002777305048 
0.0085259960136 0.0044024627086 0.0031026478168 0.0033955075621 0.0034792245754 0.0035277918738 0.0038512183326 0.0042712192566 0.0069176061405 
0.0081249369995 0.0038624492496 0.0041715138304 0.0043263854989 0.0034385430213 0.005874295828 0.0066436452669 0.0042568575394 0.02533514895 
0.0074608213119 0.0054070684803 0.0078158674655 0.010648098739 0.0094542012019 0.0078627973344 0.0061786768156 0.0074581357468 0.0078705249818 
0.0086205494574 0.0095284854586 0.0088514022118 0.00877718194 0.0088621956421 0.0086610520283 0.0087122278718 0.017310191953 0.015616233334 
0.018916350445 0.024121616335 0.019660595746 0.019000181457 0.016792994864 0.026050902972 0.015987154623 0.0087439286827 0.0089864965316 
0.008785710404 0.0076183081665 0.0085917215404 0.010096411823 0.0089921419935 0.017260905032 0.017205422864 0.0085406658828 0.008614150378 
0.0086088344657 0.0085250958277 0.0085628392693 0.0085247820772 0.0085234781363 0.0085234653252 0.0085075708249 0.017077534649 0.0085403608681 
0.0084826679413 0.0084433382831 0.0084185481337 0.0084467338361 0.0083301829768 0.0083751851031 0.0083146907154 0.0083170472816 0.00827644641 
0.008267002041 0.0082691962106 0.0081964674565 0.024412128154 0.0082201587614 0.0079208001959 0.024226650032 0.0079873923896 0.02423808424 
0.008234475819 0.0082659851122 0.0082863740162 0.0083887680209 0.008347042061 0.0084263155614 0.0083962020625 0.0084070060994 0.0082896308347 
0.0082060921594 0.0081912532769 0.007996974197 0.0085110463515 0.0078658002882 0.0065382062367 0.0070461600829 0.0093064912158 0.0041983963751 
0.005676301606 0.0094425793913 0.0055345523656 0.0077370061807 0.018257010152 0.0087055349861 0.0093361487528 0.0082464608718 0.010469891343 
0.015752457906 0.023592656267 0.008731362639 0.0087072150855 0.012387861252 0.020209742221 0.029131334944 0.034179590242 0.034542221126 
0.022872192728 0.014086421376 0.035764190136 0.029076151143 0.018793004009 0.0089571020618 0.0096282183809 0.0096615219446 0.017451904717 
0.015246901312 0.014548291499 0.017126652837 0.021581968801 0.02466123744 0.0082886531372 0.0080812481865 0.0088354573109 0.0088201023988 
0.0079419487207 0.0080497906199 0.016069447879 0.016298137177 0.00814977328 0.017320756703 0.01735335601 0.017990721509 0.0079351098702 
0.0069859805074 0.01095533399 0.024723294884 0.032437030448 0.024335950719 0.020875493755 0.0072014552133 0.0079414288309 0.015818765409 
0.015765999608 0.016785727964 0.025517408649 0.0092753180274 0.0088089288077 0.0070674555175 0.0063763540152 0.0063867761901 0.0083301643751 
0.0080438629389 0.0079391784267 0.007907356164 0.0079091132959 0.0079037219866 0.0088342545062 0.016789834012 0.0088624904541 0.0079277760924 
0.0079496400294 0.0079435679195 0.0079555021435 0.0080469750086 0.0086668711931 0.0063050443911 0.0063738742753 0.0097071958219 0.0091711941218 
0.0038832453157 0.0040233597704 0.0057377479075 0.0061541101799 0.006663713555 0.0070679946818 0.0086539519841 0.00653229756 0.0069826945775 
0.007989755288 0.0079955668196 0.0080116004642 0.0080483147899 0.0083627512834 0.0085655112363 0.0080694648824 0.0080398136606 0.0069610188741 
0.0077315869304 0.0077108404326 0.0082042079884 0.0083620947328 0.0083294058679 0.0083381630695 0.0083282742992 0.008276305104 0.0082550439588 
0.0081407123931 0.0081310524537 0.008148013749 0.0081406951575 0.0081487200533 0.008212806993 0.0082404040041 0.0079885028266 0.0079774232377 
0.0068487106399 0.013252140352 0.015855711469 0.015838160685 0.02522378542 0.047184413674 0.0092028926526 0.008626760518 0.009248284675 
0.015785933932 0.0068427899425 0.0078953887043 0.0079753573967 0.0079821034799 0.015946980711 0.015903758126 0.0079864137817 0.016719831526 
0.016001473729 0.0080708384266 0.0080165984804 0.008061910857 0.0081188215555 0.0082417931624 0.008310244882 0.0083097352106 0.0083659491195 
0.0082939861589 0.008226003977 0.0081579331326 0.0081237261646 0.0081174602287 0.0082017282849 0.0081911865232 0.0081554517476 0.0081914547975 
0.0082316758354 0.0082411914548 0.008258113991 0.0083299781946 0.0082514392985 0.0082873442141 0.0082750364222 0.0084321483749 0.0083745807773 
0.0084551639685 0.0083459722481 0.0083913025938 0.0091282002687 0.0098419662917 0.009006116051 0.012880029248 0.017882713138 0.0086091839766 
0.0081851722528 0.0081982602617 0.0075467482737 0.0072194953234 0.0074874800092 0.0066601571839 0.0071806803125 0.0082866885019 0.0083375120052 
0.0083776269442 0.011409851207 0.0081858318516 0.01363538623 0.019086562649 0.024898186032 0.020205441205 0.0095559050689 0.007518673423 
0.0049854683734 0.0042967771992 0.010660579959 0.0039182221364 0.0041359924506 0.0038834339304 0.0068373959458 0.005742833513 0.0052747254129 
0.0020153049397 0.0025916222399 0.0023263552897 0.0023855666612 0.0030238871148 0.0051754394284 0.0050372065044 0.0083392643977 0.0071770687451 
0.0043106841121 0.0027989225635 0.0030081320487 0.0034266753034 0.0032068464486 0.0027879664054 0.0025345671978 0.0057746656068 0.0048201644254 
0.002614169994 0.0032114299215 0.0015509016875 0.0059478264455 0.0075268510928 0.0079043613537 0.0082692114189 0.0091691908631 0.017987044263 
0.017140480463 0.0091179694735 0.0075175492203 0.0068114946521 0.010470691022 0.0091156553371 0.0076398538602 0.0073486186611 0.0074480738839 
0.0091189237192 0.0096588530968 0.0080224490855 0.0093742774081 0.0088868153125 0.0088903082541 0.0090172048491 0.0073528675895 0.0083141180707 
0.0076781302393 0.0077209822069 0.006478827268 0.0081759872663 0.0064094358808 0.0048411189654 0.0070554190678 0.0049484218677 0.0032074668618 
0.0029097464117 0.0029367298197 0.0015038805048 0.0023271891014 0.0034464307864 0.0033550794883 0.004127045736 0.0038692906214 0.002977219776 
0.0041028833299 0.0032544520753 0.0036635895606 0.0053834697052 0.0042174017786 0.0067909044129 0.0050992266714 0.0077877344406 0.0035113901166 
0.0039941254009 0.0066261363991 0.0067611500413 0.007447761199 0.0031575677147 0.0042403127721 0.0045088352505 0.0021369776522 0.0022383452228 
0.001946228376 0.0028051350081 0.0032086396484 0.0021110386234 0.001723639983 0.002491489523 0.0026592843913 0.0049295267095 0.0051476329591 
0.0058095519926 0.00702359649 0.0078536789619 0.0057017697861 0.0039838380916 0.003329014394 0.0035717953945 0.0029349334985 0.0035527338177 
0.0033309350021 0.0032559462867 0.0041266634089 0.003677207566 0.0043009372585 0.008989271867 0.0078095425925 0.0050218481051 0.0058535228898 
0.005087852429 0.0036546106954 0.0047090587803 0.0056722949843 0.0055206332142 0.0047421028883 0.0038646094262 0.0036244861886 0.0033173438933 
0.0046131669542 0.0050999611103 0.0057325544557 0.0075961367859 0.0092713532668 0.011583082232 0.011644486503 0.0097090434353 0.010535582957 
0.0092656351321 0.0088938768448 0.0087378595362 0.0087784520723 0.0082926245617 0.0082964576489 0.0081356037557 0.0081590320575 0.0082177365266 
0.0085020838821 0.008477654817 0.008507153336 0.0085895614466 0.0098760299634 0.010515358029 0.009121670253 0.027201277939 0.021420719633 
0.01008668363 0.0089292745563 0.017246885286 0.016565937908 0.024458307734 0.017210031609 0.017138034169 0.017260577308 0.017111216119 
0.0085723388313 0.0085533286467 0.0085448904203 0.0085552661978 0.008507203575 0.0084848830783 0.0084754901872 0.0085574827992 0.0084972721072 
0.0084255933174 0.0083965386995 0.0099728964242 0.0084943082937 0.016804333317 0.0085111627491 0.008499789884 0.016919315941 0.016947824007 
0.0085352721162 0.0079769913204 0.0080644786582 0.0085178825341 0.0085020484452 0.034167555505 0.010097722586 0.008831855275 0.0090988383793 
0.0086510023068 0.0078945926025 0.018612358652 0.026056406433 0.020388584456 0.017239394634 0.025995562273 0.0085569392583 0.0085958616262 
0.0085294605143 0.0084645998602 0.0085973098555 0.0085137174492 0.0093972073696 0.0098535250172 0.0085330909529 0.0093510920405 0.010128431266 
0.008521242851 0.0085304501193 0.0086100926522 0.0085816018443 0.0086638583746 0.0085431463955 0.009423190038 0.0085973954224 0.0083661089936 
0.0083500761958 0.008557139817 0.0085449427172 0.022609343864 0.024229711104 0.0093578228689 0.010375466081 0.0098759698406 0.0050603292349 
0.0043251637161 0.0058273088137 0.0045229059131 0.0051621450424 0.0042917059428 0.0042518015703 0.0034324595602 0.0026133761053 0.0038855882864 
0.0030995368067 0.002904110567 0.0033979644413 0.0037520405311 0.0064309314864 0.0056586215945 0.0039697687009 0.0052306902202 0.006219939202 
0.0035074873114 0.0030103803618 0.0051605214093 0.0034575290233 0.0034053067691 0.0046364911886 0.0048366940656 0.0033602100079 0.015572654387 
0.0095216859331 0.0098874620223 0.007755806179 0.010323073911 0.01425661675 0.007426532155 0.0081263798412 0.017354942535 0.010780957805 
0.010084229703 0.010401499154 0.0096041040366 0.0096652985514 0.0099206537003 0.008906365354 0.0085749831109 0.0078832731421 0.0080806797697 
0.006600683987 0.0060171171188 0.0079220637334 0.015829545112 0.013541163923 0.0072151747615 0.0062403325049 0.0089884852173 0.02521926871 
0.027680103413 0.0086600433234 0.009792363554 0.0090314495685 0.017164100583 0.0095829611873 0.038457998967 0.029092915555 0.010793261228 
0.0098762509964 0.010390634802 0.0095499061478 0.018698948993 0.011180162123 0.010758245991 0.011250282263 0.010130752129 0.0098271754122 
0.01076894482 0.01201372898 0.00489994738 0.0093983046757 0.0087992124192 0.0079488236969 0.007488468495 0.021468342602 0.012697263173 
0.010240949076 0.0096606342622 0.0088856817828 0.0076047006564 0.015171651451 0.0092795297699 0.0085476406553 0.017418701349 0.017317702766 
0.035955829414 0.025901254074 0.0081828351478 0.0080904860361 0.0089046318642 0.0095050367254 0.0095197304405 0.0095310402547 0.017783919622 
0.01826190089 0.0095158766276 0.0091640109392 0.0091280035291 0.0091410289931 0.0091394381413 0.0092577295727 0.0092529058941 0.0093502562029 
0.022872648792 0.015615825952 0.016701113423 0.012450152876 0.0096313032358 0.010475502916 0.0090688894624 0.0094529793313 0.025037614431 
0.036112942294 0.0097397382474 0.0083399834597 0.010512535556 0.017791750718 0.0084609115566 0.008283835165 0.0096012883635 0.011676450751 
0.014541752771 0.027086484496 0.010775083985 0.012005973138 0.0099822879742 0.015443157022 0.011866299561 0.004510038677 0.0087257300903 
0.011457647102 0.011517639751 0.015638309299 0.016963686837 0.010574141548 0.019265595545 0.020827061559 0.020749595812 0.0099668051504 
0.0096519904076 0.010239975659 0.01204560594 0.011907695448 0.0095262976698 0.010662338294 0.010473010699 0.0085168298605 0.0070414399285 
0.0096188943151 0.018348152034 0.029147972719 0.013097202424 0.0081999976423 0.015685755001 0.024140130685 0.012918608624 0.034595056715 
0.023887761672 0.016036101559 0.017889866973 0.011987411781 0.01939378619 0.0092509337921 0.018675707683 0.019125086503 0.01029048419 
0.0097206533948 0.018693547349 0.01460297467 0.0076158739392 0.012262850255 0.016807532524 0.010569127206 0.027193838898 0.022748986163 
0.023570324701 0.015466348933 0.0064450032533 0.009482883809 0.011974734665 0.010425181532 0.0083331227506 0.017017423895 0.01003723516 
0.009732246774 0.0092427010487 0.019908340945 0.0074899232959 0.0068245069598 0.0082439270381 0.0084339925764 0.0099446107844 0.0133513242 
0.033375078431 0.028565266567 0.013824400708 0.0094624054821 0.017676074226 0.0071598856392 0.0070904657554 0.009744473099 0.0096935585487 
0.0099153036493 0.009698120498 0.018806334007 0.028077186252 0.018679357859 0.018305163958 0.027507957408 0.027320575605 0.018122926133 
0.0090614274671 0.008960492344 0.008999339693 0.0091224105649 0.018285409376 0.01796372593 0.0090051644113 0.0090208470229 0.0090090610407 
0.0090516784907 0.0091173855001 0.0092495231345 0.009359849975 0.009465909467 0.0099379148685 0.009541601034 0.017508237926 0.018709476169 
0.012340308232 0.0096775513529 0.0070146017983 0.0073292744605 0.014199689755 0.010270536333 0.004859136364 0.0068295677283 0.0075525950266 
0.0050239081793 0.004404174464 0.0054979516143 0.0060804406639 0.0069500262931 0.0078985330113 0.0065306641231 0.0062791756659 0.0058431357157 
0.0082466798537 0.0067517647526 0.0062788491339 0.0074845788806 0.0053743233711 0.0048467720966 0.0066779394599 0.0071511174218 0.0070984958141 
0.009477871387 0.0086342667369 0.0049996184516 0.0056946640497 0.0048031711311 0.0044625946449 0.003896660954 0.0033129863114 0.004497304548 
0.0054921222174 0.0053098786263 0.0049112772072 0.0057159240147 0.0069800847803 0.013501966095 0.022430189768 0.010715733515 0.0087757881777 
0.0096455801884 0.0089258626696 0.0052787528496 0.0089147400781 0.008963222981 0.0090167694721 0.0087821786364 0.0087735177554 0.015494209482 
0.037127044579 0.02041609152 0.0088923021692 0.0088813015971 0.008861723449 0.026687945305 0.035237328448 0.017774747934 0.017728802867 
0.035539366312 0.01801963488 0.017975530588 0.017820464497 0.0089415662463 0.0089473885923 0.017743444033 0.0088473393085 0.0089187650187 
0.0089028793219 0.0090577591011 0.0090285698893 0.01769753268 0.017348218265 0.016038016753 0.0069480127417 0.0084884844403 0.0097246025926 
0.0092492400898 0.0080863129589 0.0069080184821 0.016094706278 0.025414194309 0.028607193762 0.009678744249 0.0082062939716 0.016369650471 
0.017761014635 0.017660557298 0.0087392593709 0.00872700011 0.0087038075944 0.008673704335 0.0086583989245 0.0087609522568 0.0070103577393 
0.0086804418004 0.0098672532891 0.0093896524974 0.0094243161876 0.0079310031625 0.0070746487947 0.0086693414518 0.0087118308912 0.0086147224711 
0.0074879916822 0.0074487848899 0.0085245092123 0.017051001065 0.0091790895307 0.010846188969 0.010796905223 0.0095686079245 0.0090998523823 
0.0091083605469 0.0081655486565 0.0081118830413 0.0065429542031 0.0065317524467 0.0081864438517 0.0097005544469 0.0095410576222 0.016006749459 
0.018299071561 0.016764716031 0.018901960924 0.014501806344 0.0062762229567 0.0068442670884 0.006426287574 0.0052732297618 0.0064714846885 
0.0051858909552 0.0059856684965 0.0034111682936 0.0035880070353 0.0033666286361 0.0029478759323 0.0024765606079 0.0026223915709 0.0050661146156 
0.0053209954476 0.0045646464693 0.0060792959789 0.0093363832113 0.0073566486506 0.0030802669341 0.002832816956 0.0030664076191 0.0038128217541 
0.0031102219307 0.0024775736588 0.0026259253779 0.0039039610894 0.0035742141508 0.0023165780101 0.0028175554276 0.0036460703158 0.0046787288357 
0.0042522554334 0.0050905712346 0.0054591239262 0.0058842696142 0.0050673514105 0.0051361138247 0.0035840348819 0.0047586209287 0.0052735789706 
0.0054412675682 0.0031476364589 0.0033406737003 0.0041774330453 0.0031524449129 0.002873667798 0.0032284428518 0.0034081239148 0.0042113610925 
0.0029654009407 0.0029226075376 0.0024853184781 0.0030694069645 0.0037301936471 0.0041297810775 0.0035736049104 0.00315819064 0.0037534681908 
0.0047663590937 0.0047798967744 0.0064661899706 0.0066007729146 0.0036609512677 0.0025630723237 0.0073258321165 0.0033458577618 0.0070571746013 
0.00078661740028 0.001612505436 0.0016538642315 0.0022422123065 0.0030800689426 0.0024873613896 0.0016669365583 0.0040540900251 0.0040313233402 
0.0052782372335 0.0042283474969 0.0038526957886 0.0026616144225 0.0040044200984 0.0039665098509 0.0062862902318 0.0092252904767 0.0097369018861 
0.009111834785 0.0074243507716 0.0073030020237 0.0066264390206 0.0049709608331 0.0055302086187 0.0070994818135 0.0084053426644 0.014665729594 
0.012015157728 0.013432666956 0.015446348418 0.015280134696 0.011466995844 0.016297821562 0.0078602252724 0.0082066031054 0.0082457478139 
0.01628371454 0.031327442842 0.015144025516 0.021170337498 0.020491221254 0.0069452747827 0.013984426288 0.016239043908 0.018037101898 
0.0080903028461 0.016159269914 0.0080661774069 0.0080339766697 0.0080173120368 0.0080432834674 0.0080078756004 0.0080031167545 0.0079857238618 
0.0079811370669 0.0079704457553 0.007978035584 0.0079802731225 0.015980534301 0.013340368636 0.0069103440506 0.0069189389748 0.0079908236462 
0.0079928035356 0.007977897483 0.016042680449 0.016067293455 0.022276765132 0.014251974703 0.01424329448 0.017829949323 0.019594085694 
0.0092385869925 0.0089212198823 0.0089672488832 0.0090041615347 0.027699836121 0.023656697432 0.018687396396 0.01143708217 0.019191509475 
0.014692333365 0.0094876127805 0.009189063748 0.0090731034983 0.0077848434827 0.0093646604936 0.0077015046578 0.0068412829363 0.012624724902 
0.0078543099332 0.010018755666 0.0093238933709 0.0092485935673 0.0082310732498 0.0070124237523 0.0073402433455 0.0077957711186 0.0076162882707 
0.0070749202214 0.0068210209836 0.010923366875 0.010034141692 0.0084009331369 0.0087692225356 0.0091155604052 0.0090941182754 0.010739953651 
0.012054610803 0.012783485708 0.0078338161404 0.010663953973 0.010517722564 0.011198525149 0.010876930034 0.0095169132397 0.0068959338658 
0.0074664106442 0.019031024998 0.023419332671 0.020173461121 0.0086071980315 0.01729787237 0.018848613452 0.017364935145 0.019172611909 
0.010130225181 0.0096680919928 0.0096377557141 0.010139777449 0.0055641629452 0.0072872820249 0.0069462725928 0.0067229056615 0.0053651359028 
0.0056493999914 0.0084335259624 0.0067515139489 0.0046770340033 0.0086721815121 0.0062807932681 0.007726598336 0.0094219057502 0.009133974878 
0.0098029698104 0.011968672116 0.018753660962 0.017835647627 0.027144302397 0.02709110812 0.026907973981 0.017998735871 0.017952284687 
0.010392376829 0.0097573002175 0.0096239340057 0.011179789313 0.011016137322 0.0094919601852 0.0084483758153 0.0083867754521 0.0081730435645 
0.0081942725343 0.0082258309275 0.0066559154176 0.0076374791751 0.0089319729647 0.0085102811513 0.0086160349984 0.0076606980841 0.0099303731263 
0.0090912194127 0.0074093222088 0.006766026847 0.0056255992774 0.0083114486673 0.0083732604652 0.0085113737007 0.0084030920527 0.008396310112 
0.0084081181254 0.008336413634 0.0081421688893 0.00814464347 0.008160873193 0.0081687702851 0.0082164553868 0.0082333289704 0.0082713755131 
0.0091645407321 0.0075071671688 0.0087030814309 0.0069717775248 0.0071265383433 0.0070702664049 0.0074039129642 0.0087258828575 0.0067627776773 
0.0067438407764 0.0060111100545 0.0062452394804 0.0066126276166 0.0080538707315 0.0085070285289 0.0071903992198 0.007795838155 0.0093000719963 
0.008615377653 0.0089632590773 0.0096795258279 0.0091471897731 0.0091451892554 0.0089242267425 0.0089472922958 0.0083057645369 0.0082465911634 
0.0088063687997 0.016278241241 0.016257568187 0.015200639459 0.01581485232 0.016551451323 0.011886374654 0.0080862881715 0.0053852343781 