# vtk DataFile Version 4.2
vtk output
ASCII
DATASET POLYDATA
POINTS 18302 float
24.0366 -9.76652 1.19595 23.9734 -9.66634 1.06985 23.9743 -9.64024 1.19527 
23.9017 -9.54241 1.09841 23.8328 -9.41706 1.19622 23.9097 -9.52614 1.21316 
23.9514 -9.55081 1.33207 24.028 -9.66876 1.4454 23.9724 -9.53859 1.47247 
24.0377 -9.64113 1.57109 23.9842 -9.5239 1.58719 24.0255 -9.5708 1.69649 
23.9444 -9.43021 1.7075 24.0878 -9.64128 1.82147 23.9618 -9.40123 1.83747 
24.0795 -9.55674 1.95816 24.0443 -9.41901 2.0726 24.1596 -9.55077 2.19385 
24.102 -9.42141 2.20231 24.2219 -9.5528 2.31818 24.2261 -9.4292 2.43028 
24.2711 -9.57321 2.44597 24.2904 -9.51864 2.57143 24.2644 -9.40197 2.55282 
24.2941 -9.42067 2.67043 24.2566 -9.29218 2.56744 24.2944 -9.29387 2.69489 
24.3331 -9.42096 2.7941 24.2826 -9.16763 2.722 24.2441 -9.16693 2.59531 
24.2379 -9.04138 2.69441 24.2805 -9.06983 2.81983 24.227 -8.92646 2.83125 
24.2902 -9.015 2.94504 24.2422 -8.89065 2.96699 24.2715 -8.90089 3.07061 
24.2054 -8.77457 3.09739 24.2533 -8.80807 3.20311 24.215 -8.72231 3.26469 
24.2806 -8.76165 3.36524 24.2518 -8.67478 3.42427 24.1411 -8.62412 3.32427 
24.1892 -8.59467 3.46351 24.2911 -8.63582 3.57393 24.2502 -8.58579 3.60845 
24.3024 -8.62035 3.70404 24.3567 -8.68994 3.71312 24.3097 -8.64561 3.7831 
24.2555 -8.59056 3.755 24.2339 -8.61261 3.86341 24.2946 -8.6796 3.88204 
24.3673 -8.72239 3.78505 24.343 -8.75018 3.89105 24.2764 -8.71316 3.94673 
24.2435 -8.66181 3.92332 24.171 -8.67491 4.00117 24.2225 -8.755 4.0093 
24.1224 -8.72865 4.03998 24.169 -8.80408 4.043 24.118 -8.8703 4.05124 
24.0071 -8.71402 4.05702 23.9456 -8.80685 4.05822 23.9043 -8.71445 4.06845 
23.8144 -8.78036 4.07773 23.9272 -8.91914 4.04887 24.0372 -8.9121 4.04601 
24.056 -9.04481 4.02251 24.1569 -9.04796 4.02594 24.2315 -8.99551 4.03836 
24.2435 -9.10456 4.01213 24.3052 -9.03872 4.03015 24.3068 -9.1303 4.0048 
24.3639 -9.06627 3.99129 24.359 -8.96722 3.99346 24.2993 -8.93105 4.0364 
24.3307 -8.87772 3.99343 24.2556 -8.84084 4.02694 24.1947 -8.90425 4.04722 
24.3008 -8.78996 3.98922 24.3668 -8.81261 3.91793 24.3994 -8.92441 3.94039 
24.4162 -8.87097 3.87363 24.4464 -8.96363 3.87682 24.4641 -8.91616 3.81349 
24.443 -8.85542 3.76328 24.4047 -8.79275 3.83169 24.4063 -8.77129 3.72145 
24.3767 -8.74081 3.63384 24.4314 -8.85242 3.64922 24.3809 -8.80397 3.54396 
24.4233 -8.93208 3.54327 24.3788 -8.91508 3.44738 24.3248 -8.89041 3.32126 
24.321 -8.73006 3.49886 24.3726 -9.03081 3.33209 24.3152 -8.94509 3.19551 
24.3254 -9.04274 3.07069 24.3922 -9.15211 3.30372 24.4117 -9.17156 3.42121 
24.417 -9.04009 3.47473 24.444 -9.16061 3.53414 24.4522 -9.03903 3.57023 
24.4677 -9.0294 3.68645 24.4623 -9.12146 3.65227 24.4681 -9.09391 3.7485 
24.4702 -9.18582 3.71408 24.4658 -9.14906 3.79846 24.4852 -9.24953 3.76022 
24.5038 -9.27903 3.68821 24.5044 -9.34213 3.76665 24.5314 -9.37452 3.66482 
24.5293 -9.41805 3.74835 24.5513 -9.45894 3.70434 24.5085 -9.48899 3.759 
24.5362 -9.53593 3.75579 24.5649 -9.53449 3.68716 24.5532 -9.46092 3.64542 
24.5741 -9.62191 3.64777 24.5704 -9.55228 3.56966 24.5451 -9.43951 3.584 
24.5082 -9.33948 3.55545 24.5387 -9.46669 3.51639 24.5019 -9.42039 3.4378 
24.5871 -9.68898 3.42157 24.5603 -9.6693 3.32155 24.4453 -9.54507 3.07125 
24.4371 -9.4371 3.17961 24.4603 -9.28921 3.4594 24.4166 -9.26934 3.32281 
24.4117 -9.32243 3.19641 24.3987 -9.40945 3.06015 24.3332 -9.15627 2.9569 
24.3551 -9.15217 3.0873 24.3133 -9.18492 2.83674 24.3711 -9.42042 2.91809 
24.4135 -9.54565 2.94526 24.375 -9.52935 2.83776 24.3416 -9.55836 2.70893 
24.4647 -9.7817 2.80811 24.394 -9.79459 2.57119 24.3105 -9.68539 2.42858 
24.2677 -9.66926 2.32002 24.3234 -9.91879 2.19516 24.3655 -9.91974 2.32055 
24.3718 -10.0445 2.19572 24.325 -10.0448 2.07163 24.2776 -9.91992 2.07224 
24.2838 -10.0457 1.94705 24.2005 -9.80815 1.9285 24.223 -9.78027 2.05909 
24.1584 -9.64229 2.07174 24.1498 -9.69682 1.94594 24.1494 -9.76579 1.82136 
24.0867 -9.69668 1.69646 24.1401 -9.82225 1.69642 24.0917 -9.7665 1.57105 
24.1898 -9.94689 1.6958 24.1942 -10.016 1.57083 24.2363 -10.0722 1.69634 
24.2427 -10.0172 1.82112 24.2002 -9.89074 1.82043 24.3346 -10.2661 1.82132 
24.3334 -10.1691 1.94649 24.3806 -10.2938 1.94676 24.3751 -10.1695 2.07156 
24.4255 -10.2935 2.07105 24.4223 -10.1695 2.19595 24.4174 -10.0439 2.3202 
24.4693 -10.1686 2.31984 24.4666 -10.0556 2.45735 24.5208 -10.1969 2.44567 
24.5336 -10.0445 2.69592 24.5852 -10.1686 2.69531 24.5712 -10.0437 2.82058 
24.6187 -10.1692 2.82093 24.6872 -10.1681 3.06989 24.7201 -10.2767 3.05345 
24.6834 -10.4181 2.72296 24.6325 -10.2937 2.6956 24.6402 -10.4075 2.58163 
24.5712 -10.3096 2.46158 24.6007 -10.4179 2.44406 24.5263 -10.3051 2.33222 
24.5171 -10.4184 2.1951 24.6383 -10.5434 2.44279 24.6789 -10.5425 2.56903 
24.7081 -10.681 2.55714 24.7323 -10.6405 2.69394 24.757 -10.7662 2.69555 
24.7648 -10.6695 2.82127 24.7883 -10.7939 2.82096 24.7944 -10.6693 2.94602 
24.7656 -10.5433 2.91755 24.796 -10.5322 3.05945 24.7488 -10.4349 2.96189 
24.7603 -10.3908 3.07042 24.7955 -10.4168 3.19808 24.7501 -10.2817 3.18528 
24.7743 -10.3083 3.29307 24.706 -10.0803 3.30362 24.7193 -10.1242 3.38666 
24.7784 -10.3253 3.40557 24.8049 -10.3936 3.3747 24.8182 -10.4506 3.28239 
24.8317 -10.4882 3.38394 24.8471 -10.5605 3.2976 24.8582 -10.6061 3.38624 
24.867 -10.6686 3.31186 24.875 -10.7327 3.38647 24.878 -10.7793 3.30657 
24.8765 -10.8587 3.38631 24.8823 -10.9222 3.32358 24.8714 -10.9843 3.26127 
24.8671 -10.9027 3.16975 24.8666 -11.0296 3.1713 24.8573 -11.1093 3.27472 
24.8618 -11.1566 3.18248 24.8324 -11.2343 3.25977 24.8456 -11.2808 3.19995 
24.8139 -11.3461 3.25179 24.8354 -11.3449 3.15198 24.8528 -11.2167 3.12984 
24.8505 -11.2786 3.04566 24.8386 -11.4062 3.06019 24.8093 -11.4225 3.20572 
24.8044 -11.4953 3.15213 24.7588 -11.4946 3.24726 24.757 -11.5726 3.2058 
24.7119 -11.5746 3.27749 24.6866 -11.7138 3.25606 24.737 -11.6836 3.17593 
24.7017 -11.797 3.18671 24.7479 -11.7934 3.07364 24.7846 -11.6799 3.04689 
24.7836 -11.7795 2.9548 24.7614 -11.8934 2.94852 24.8056 -11.6885 2.83487 
24.807 -11.6598 2.92544 24.8146 -11.5896 2.82262 24.7978 -11.6574 2.70726 
24.801 -11.5351 2.69549 24.8235 -11.4521 2.82999 24.8207 -11.5565 2.95985 
24.8372 -11.4213 2.94813 24.8207 -11.5046 3.04587 24.843 -11.2952 2.94656 
24.8224 -11.3174 2.80269 24.8188 -11.1692 2.82085 24.8395 -11.1694 2.94575 
24.8512 -11.1547 3.03531 24.8352 -11.0441 2.9456 24.8557 -11.0584 3.07878 
24.8355 -10.9189 2.97323 24.845 -10.8216 3.07036 24.8522 -10.7481 3.15911 
24.8291 -10.6806 3.08187 24.8321 -10.5647 3.19267 24.8163 -10.7938 2.94566 
24.8121 -10.9187 2.84806 24.7821 -10.9068 2.7071 24.814 -11.0441 2.82059 
24.7923 -11.0439 2.6953 24.8023 -11.3025 2.68204 24.7685 -11.0435 2.56959 
24.7538 -10.9184 2.56958 24.7192 -10.9184 2.44446 24.7062 -10.7936 2.47273 
24.7406 -10.8104 2.58669 24.6623 -10.6686 2.41743 24.6654 -10.794 2.34827 
24.6211 -10.6684 2.29236 24.5633 -10.5439 2.22297 24.5766 -10.6684 2.16679 
24.4888 -10.6687 1.94646 24.4568 -10.5441 1.94638 24.4459 -10.6686 1.82052 
24.4065 -10.533 1.81005 24.4225 -10.4185 1.94639 24.4701 -10.4181 2.07035 
24.4737 -10.293 2.19511 24.374 -10.3915 1.82167 24.3556 -10.4468 1.69629 
24.3221 -10.3214 1.69581 24.313 -10.3911 1.5711 24.2385 -10.1414 1.57119 
24.2373 -10.1854 1.46254 24.1979 -10.071 1.44567 24.0879 -9.80543 1.43365 
24.1024 -9.90637 1.20736 24.1459 -10.0557 1.05887 24.0934 -9.91707 1.07 
24.2014 -10.1674 1.19511 24.1947 -10.196 1.07064 24.2749 -10.4196 1.32117 
24.2249 -10.3107 1.08751 24.2469 -10.2943 1.32098 24.2944 -10.4195 1.44631 
24.3228 -10.5441 1.44595 24.3417 -10.5164 1.57096 24.3956 -10.7826 1.58358 
24.4031 -10.6694 1.69701 24.4399 -10.7936 1.72353 24.4817 -10.7935 1.8478 
24.531 -10.9201 1.94756 24.5241 -10.7941 1.97415 24.6231 -11.1523 2.08741 
24.5796 -11.1806 1.95698 24.5892 -11.3218 1.94525 24.6833 -11.3059 2.20719 
24.7131 -11.1966 2.31948 24.7283 -11.4186 2.3188 24.7542 -11.2938 2.44477 
24.7484 -11.1685 2.4442 24.7761 -11.169 2.57025 24.7374 -11.0431 2.44386 
24.693 -11.0556 2.30772 24.6765 -10.9191 2.32057 24.6222 -10.7939 2.22264 
24.6316 -10.919 2.19513 24.7787 -11.421 2.56097 24.8047 -11.3916 2.69555 
24.7776 -11.5442 2.57082 24.7559 -11.419 2.44526 24.7544 -11.5442 2.44566 
24.7289 -11.669 2.31911 24.6885 -11.4468 2.19455 24.6875 -11.6971 2.19487 
24.5959 -11.4469 1.94541 24.5459 -11.3915 1.82145 24.5366 -11.2666 1.82163 
24.4858 -11.1696 1.69668 24.5228 -11.1416 1.82153 24.4692 -11.0445 1.69642 
24.4039 -11.0165 1.44652 24.414 -10.9317 1.55985 24.3685 -10.7945 1.44627 
24.3496 -10.7943 1.32102 24.3273 -10.6694 1.32104 24.2592 -10.4197 1.19611 
24.2898 -10.5559 1.18393 24.3214 -10.7823 1.08273 24.2959 -10.6413 1.07086 
24.2662 -10.5439 0.945769 22.8398 -8.30376 1.27935 22.9277 -8.40716 1.07123 
22.7041 -8.2532 0.964293 23.0392 -8.4789 1.20858 23.0524 -8.50189 1.07166 
23.5133 -8.92448 1.20504 23.3898 -8.79293 1.19701 23.4471 -8.79558 1.31485 
23.5345 -8.8974 1.33777 23.5055 -8.80111 1.43737 23.412 -8.72106 1.4341 
23.4937 -8.75292 1.55392 23.3893 -8.67458 1.56276 23.4458 -8.69665 1.64461 
23.3448 -8.61647 1.82557 23.4533 -8.67775 1.84181 23.4387 -8.64801 1.95848 
23.642 -8.71383 2.02523 23.6754 -8.74627 1.98769 23.5414 -8.73234 1.77802 
23.7131 -8.80205 1.93672 23.6438 -8.79205 1.82394 23.7158 -8.85394 1.88419 
23.6528 -8.85487 1.76099 23.5993 -8.79291 1.71539 23.5987 -8.8551 1.61791 
23.5531 -8.79793 1.5716 23.5615 -8.8588 1.49098 23.6156 -8.94214 1.54965 
23.6598 -8.94284 1.67956 23.6499 -9.05095 1.57308 23.6201 -9.05029 1.44676 
23.5894 -8.95708 1.42256 23.5956 -9.01359 1.31833 23.6613 -9.14361 1.32127 
23.6071 -9.06721 1.19351 23.2824 -8.68562 1.17049 23.2547 -8.67473 1.03767 
23.1628 -8.57935 1.07573 23.3412 -8.79893 1.07058 23.4513 -8.91728 1.07008 
23.5545 -9.0407 1.07032 23.6104 -9.17 0.945181 23.6801 -9.19755 1.19522 
23.6999 -9.29532 0.944478 23.7488 -9.28622 1.30996 23.7518 -9.31244 1.17896 
23.6909 -9.17409 1.44703 23.7821 -9.29692 1.44648 23.7243 -9.17344 1.57136 
23.6968 -9.05015 1.7003 23.7657 -9.17342 1.6968 23.8225 -9.04358 1.94656 
[...]
CELL_DATA 36600
FIELD FieldData 1
Area 1 36600 double
0.0088804869233 0.0078056011461 0.0083280001268 0.0097552924546 0.022831483671 0.010046635637 0.0087196987669 0.0074041135594 0.0076149401571 
0.0092595646947 0.010757181603 0.017911525227 0.01841633213 0.02008506273 0.018981906454 0.0099908871315 0.0097651972373 0.017664475152 
0.009872794572 0.010173073976 0.0079370473715 0.0069628995935 0.0068074194749 0.0084610148877 0.008236866736 0.0082358686509 0.0084627407186 
0.0086566991592 0.0081080297274 0.01009798876 0.0095559286872 0.0089302329282 0.0073048777213 0.0078449036865 0.0084626399415 0.0067268126492 
0.0070926943027 0.0068702564824 0.010140997627 0.0078250395203 0.0080564244624 0.0055764004407 0.0041745278 0.005827222886 0.0034081964898 
0.0027757447689 0.0043683675955 0.0046099288404 0.0049789448799 0.0047481167183 0.0030608603639 0.0020697032219 0.0034998483774 0.0043895073887 
0.0037824295273 0.0034895429758 0.0034836118037 0.0083209911441 0.0099600582245 0.0047960024901 0.0055724104924 0.0077104833084 0.0061408562338 
0.0074812832503 0.006783196502 0.0083492948242 0.0045072193525 0.0038729592139 0.002989427149 0.0031063867523 0.0034124751502 0.0038079056012 
0.00295540299 0.0032699014729 0.0042419616501 0.0039826066845 0.0043043103362 0.0028868959255 0.0032192990653 0.0042543580328 0.0049349113203 
0.0038334128277 0.0035533217037 0.0033916645377 0.0036196478173 0.0043164700599 0.0046875496989 0.0040045494108 0.003308771529 0.004024738831 
0.0051996586059 0.0062213702048 0.0074587637184 0.0069414364513 0.0090833995951 0.012428109364 0.0093945277453 0.009678881493 0.0097907068425 
0.0095719750744 0.012972334293 0.0096632874893 0.016289751315 0.0076035231662 0.010098259951 0.0074541405729 0.0061728250739 0.0055362905124 
0.0065846805996 0.0052306586205 0.0039664037248 0.0039642513474 0.0032491349061 0.0036134607163 0.0031502142401 0.0035580316802 0.0046899529575 
0.0037638292877 0.0028524116424 0.0021752345827 0.0020638034039 0.0028350925554 0.0022429456459 0.0033052925461 0.0062730425451 0.0037157309129 
0.0029590766182 0.0052739380199 0.0040280904623 0.0064176092069 0.011897760242 0.014572879422 0.042217095225 0.014264382696 0.018405317782 
0.01408398928 0.0083146376824 0.0070642453416 0.0075486288757 0.022522559786 0.011764070008 0.0074870137734 0.009254385019 0.0172904469 
0.0075551872313 0.017791885851 0.013341597414 0.0096235321763 0.0070529850733 0.0072617176044 0.0082287161334 0.017891280393 0.030530921086 
0.033407351088 0.009949276832 0.0070299131248 0.016371779011 0.016556483113 0.0088344605294 0.0088554785792 0.0087060563911 0.0087187999822 
0.017474485354 0.01018243367 0.021067328624 0.020484770566 0.016509096339 0.0095888671762 0.0099104796372 0.0080932089236 0.0072957093502 
0.0089113608113 0.0088592733388 0.008775577546 0.0086948703191 0.0087016534501 0.0085899146845 0.017109322472 0.0084725893189 0.0085168261543 
0.0085313928649 0.0074491874374 0.016891284476 0.017133943444 0.0086166263139 0.0086473945582 0.0087304466273 0.008778180551 0.0088276431729 
0.0088884926164 0.0088664625913 0.0088770410968 0.009670173322 0.010200797558 0.018830142783 0.017425698054 0.008704012177 0.008681627206 
0.017249923667 0.014769408179 0.037536550294 0.010340621733 0.0094645795331 0.0136372573 0.0080647166754 0.0077792039828 0.0081755006091 
0.015534946364 0.017158252337 0.0086693653961 0.0094136654384 0.0097441773345 0.009016471881 0.0082957397485 0.0081118111844 0.0081150337778 
0.0081948128857 0.0094672665119 0.0078714211312 0.0078604489366 0.0097102192562 0.0090475424946 0.0075427199935 0.013133430088 0.010126954349 
0.011628192084 0.0043881966446 0.0065685395495 0.0048081810582 0.005470672559 0.0053020252304 0.0045384837509 0.0047561440971 0.0043217213261 
0.0050347556449 0.0050334629321 0.0050635517887 0.011255690584 0.005751703202 0.0059653206248 0.0061395046164 0.0056043082809 0.0043084873151 
0.003423609312 0.0034539592226 0.0038235461829 0.006142949883 0.006351298003 0.0054039748382 0.005936463353 0.004093053378 0.0042300177384 
0.0034850547167 0.0060637875886 0.0057138065917 0.0050849149017 0.0070984299491 0.0079253689323 0.0070020698769 0.0072078359159 0.0072548414714 
0.005945196576 0.0046742123112 0.0061752828637 0.0075147636022 0.0090324709547 0.0093349528691 0.0082664614443 0.0061783547876 0.0054931031879 
0.0070801844172 0.0091760605185 0.010581901619 0.0079711920899 0.0062660735396 0.0056727808366 0.0056656676254 0.0067963764085 0.0059016706544 
0.0057400667526 0.0086385562573 0.014764991459 0.0089062086767 0.0073606013024 0.0059841705466 0.008419179228 0.01297510218 0.009921917269 
0.0092083611271 0.0088266114858 0.0076124215184 0.0080092977205 0.0080475041244 0.0088908176912 0.0092121832031 0.0087533913761 0.0079608750346 
0.017311998187 0.016567727664 0.0080573108435 0.0081729092069 0.0082028555316 0.0066188291594 0.0075900165587 0.0081896583557 0.0075072245239 
0.0089655235981 0.0083545529901 0.0084159350948 0.0084868316073 0.014960772456 0.0085534278082 0.015271705934 0.018972897677 0.0085230666096 
0.010019405133 0.0093628397489 0.0086099651436 0.0087296324966 0.0087505431954 0.0087841295388 0.0086501808968 0.0097488293438 0.0085718108554 
0.00909043843 0.0084044745778 0.008463676224 0.0082876000157 0.016674555991 0.016699280607 0.014269970196 0.0069864607957 0.0083911789782 
0.018478426209 0.033316331441 0.018190662089 0.032619953395 0.010181053099 0.021936367755 0.0094621357951 0.015079158385 0.016388331982 
0.016300758402 0.0081274954259 0.0080888730361 0.0081372435176 0.01743553615 0.016598098896 0.014645734313 0.0091298222569 0.0083039481745 
0.0083542310703 0.0083540744045 0.0084623679695 0.013015385192 0.018502172379 0.0096351047254 0.022549130951 0.016244285489 0.013127352066 
0.014486048284 0.0081573821715 0.015173255832 0.0085903175144 0.0081182233094 0.0081387915023 0.0090294060509 0.0098313315977 0.0082517346972 
0.0082910327909 0.0084147200801 0.0084234860994 0.016897517008 0.017024389318 0.0091921319723 0.022094341257 0.014886243195 0.0063046496074 
0.0098325485659 0.0078547831812 0.007252625745 0.0079632566116 0.0080979549106 0.016188156348 0.016341789386 0.01638856563 0.033267104335 
0.016641263366 0.008295730626 0.0083158483677 0.0082903816821 0.0082422215188 0.0091263436951 0.0082836787555 0.018002624972 0.016230581453 
0.012767145667 0.012072245951 0.010435649728 0.013021285067 0.014239009366 0.0080342893549 0.016077278443 0.024139076131 0.010327549741 
0.015206872692 0.012597431918 0.011090292107 0.035633764687 0.010759089141 0.011072562676 0.0092737273572 0.0082192515483 0.0077433092997 
0.0074517589369 0.0083324459887 0.005697546809 0.010709313891 0.012378940108 0.007585993274 0.013502679692 0.0079327767764 0.015157876362 
0.010236926859 0.0054539800812 0.0041523280529 0.0050118014505 0.004119761397 0.005408198536 0.0049797644011 0.0043864224031 0.0048968809354 
0.0061112463535 0.0065345260594 0.0076467256514 0.0072809178092 0.0064825862978 0.0058173008952 0.0064746883175 0.0071678315617 0.0092997427158 
0.0092268373043 0.010500495236 0.009347082402 0.0097281675535 0.0096655051552 0.011386893127 0.019526932173 0.008710180076 0.010279113125 
0.010781430973 0.010564688834 0.0097392236675 0.0091592145607 0.0095851087614 0.0092548480986 0.019223936811 0.015022542024 0.013207177298 
0.012506956202 0.0073090249686 0.0057503727097 0.0061633822148 0.0085719422166 0.0052046248919 0.0068753704954 0.0069932429949 0.0064593392835 
0.0077076059855 0.010102039585 0.0081597750365 0.0074527613172 0.010111824195 0.010675294244 0.0083289963829 0.008188630621 0.0053785538699 
0.0073817738836 0.017586698812 0.011097159335 0.011795194325 0.0087961818895 0.0067657139688 0.00947414157 0.020074298889 0.0093902973535 
0.0065324810824 0.0090956107813 0.016601031866 0.016969389632 0.016453904454 0.0072843430768 0.0054546922029 0.0071970019513 0.0096636987912 
0.011168217673 0.0098758411678 0.006946578927 0.0075072577937 0.0072700872157 0.0097065418445 0.0089845151271 0.0078158580386 0.0081678423947 
0.010421388054 0.0096595642881 0.0095472829504 0.010198929679 0.010465601686 0.010161191942 0.0090920468278 0.0094616132834 0.0092070163499 
0.0096686458513 0.0095572323012 0.0098951086231 0.0097463062724 0.0098752752457 0.009805941689 0.010350126316 0.0094007761595 0.011230110568 
0.010431638431 0.018498309505 0.016506002535 0.0095461171443 0.0098777798954 0.0097183279992 0.010929762122 0.011268433073 0.0094254245815 
0.01082651025 0.0098137484902 0.010388853261 0.011048367928 0.0091810267002 0.0089963965647 0.0087519232077 0.0087178974127 0.010252058553 
0.011655850773 0.010474414303 0.0090174968955 0.0090358669501 0.0092394535533 0.011539452299 0.010190505968 0.0083649447421 0.0079012492149 
0.0073251204191 0.0058415371723 0.0056027193731 0.004070132857 0.0032525324095 0.0022685517252 0.0033134576213 0.0049812387437 0.0035843723211 
0.0022939084553 0.001775566145 0.0024938071058 0.0040902591775 0.0036507319452 0.003476089902 0.0046919140248 0.0036619604891 0.0027713230022 
0.0038110628588 0.0028822672295 0.0052527991252 0.0060430075194 0.0027741040908 0.0098276381463 0.0064837996179 0.0041753493447 0.0031969960237 
0.0032908775232 0.0031390707281 0.0039192112675 0.0051977772691 0.0068936914415 0.006903177248 0.0070455684454 0.0092839807579 0.0083083843218 
0.0082488025043 0.0089522252987 0.0075376799698 0.0087026292054 0.007364621196 0.0069316050365 0.0079842339949 0.0076467623409 0.0064080094165 
0.0076843577563 0.0084461814209 0.0065234383797 0.0067899892894 0.0070656217641 0.0078507059753 0.0042424680193 0.0046038157117 0.0038206311699 
0.00295995534 0.0028509606744 0.0019633137883 0.002192542114 0.0022294889631 0.0017899820856 0.0012793335647 0.002502200523 0.003579257349 
0.0031706683095 0.0021209925773 0.0033048115687 0.0033611148402 0.0033818547901 0.0040733425066 0.0043100190386 0.004020551273 0.0028313093951 
0.0031695340667 0.0022893232066 0.0018979711909 0.0020785766121 0.0031289558938 0.0022904831832 0.0028766655308 0.0032492937826 0.0034786406297 
0.0028293345591 0.0032683825309 0.0038308061728 0.0037326665149 0.0029429741627 0.0025882074821 0.0037506460605 0.0026792861325 0.002675273804 
0.0025668436462 0.0022230633631 0.0022821792876 0.0022528624442 0.0021069120525 0.0031471431772 0.0031084367382 0.0031528124472 0.0033617356231 
0.0040752370676 0.0040889189857 0.0049014990948 0.0055065596818 0.0076867052461 0.004916022299 0.0046756690391 0.0071750075592 0.0064300052938 
0.0077496455011 0.0095434941626 0.020509201056 0.020126884218 0.0086398049721 0.0085764931059 0.010568350709 0.0086804131537 0.0088591577005 
0.0094481472104 0.013993558091 0.0093856549356 0.011105958568 0.015833571686 0.033171728024 0.0086230413464 0.0079988290483 0.0091534957662 
0.009381072382 0.0060345590736 0.0067398756113 0.0055295424127 0.0031434542422 0.003153623005 0.0071359435835 0.0053619737561 0.0045364108944 
0.0035042546702 0.0034673131294 0.0021887481598 0.0033146360775 0.0038417090243 0.0037384729442 0.0035104712542 0.0043300556769 0.0049474999415 
0.0039628561075 0.0074265175365 0.0062472516383 0.0076443406334 0.0094155376882 0.0057544015986 0.0063448515402 0.015214493997 0.021178627843 
0.0083525211505 0.0062226303672 0.0062952345537 0.012720322276 0.0044819988341 0.0054946450297 0.0030237082035 0.0033721817076 0.0034579021391 
0.0026558101011 0.0031394831281 0.0033873419694 0.0024454791154 0.0023780535836 0.003218823216 0.0083272748598 0.0056651896868 0.0038958079361 
0.0040293607095 0.0027093009007 0.0020937294054 0.0022570233714 0.0023290422321 0.002495596671 0.0030519954927 0.0031268242707 0.0036167758378 
0.0035990975261 0.0016643520924 0.0015409763359 0.0039205641717 0.00332812742 0.0028877237475 0.0037999811055 0.0026157428956 0.0025489311115 
0.0025804782238 0.0027660340094 0.0046254829983 0.0031681586167 0.0041381816597 0.0032545465828 0.0032914278617 0.003647138206 0.003233209787 
0.0024359598116 0.0019464870015 0.0014915662782 0.0017789240156 0.0023508570481 0.0029790304708 0.0022948884552 0.0029358320873 0.0038603254016 
0.0040582951393 0.0041062884151 0.0044076777997 0.0029957997754 0.0024923071049 0.0036866747005 0.0039733064231 0.0046183179567 0.0048056050101 
0.0038867497796 0.0039826634352 0.0039048195461 0.0039038351332 0.0041113292 0.0039629204876 0.0052118866576 0.0060246335738 0.0046193116841 
0.0028811106275 0.0046417786265 0.0080364897495 0.0071307541359 0.0081453201044 0.0068448120528 0.010078892242 0.0084672234712 0.0081387143676 
0.0078633547539 0.0069724937109 0.0064099882992 0.0060647305078 0.0063412661762 0.0048105509634 0.004914586973 0.0058571396452 0.012644650805 
0.012368661175 0.012904787335 0.017867463475 0.016822736574 0.0078774569797 0.017011554989 0.0079050609294 0.0093527612684 0.0097389729019 
0.009361048058 0.0091619118637 0.0067790403274 0.012963642143 0.0061242070966 0.0075432590016 0.0088101703737 0.0054490535742 0.0080256979968 
0.0032370958573 0.0060450247066 0.0072878615354 0.01129117985 0.0077000817773 0.0044647172859 0.0074166122182 0.0070465654113 0.006406385787 
0.006773239493 0.0070070366948 0.0063163636017 0.0048856575844 0.0055821012574 0.010658905603 0.006415685261 0.0071755937987 0.0054220074981 
0.008499101304 0.014984439877 0.019173350491 0.010172901304 0.010809594947 0.009950591898 0.0091187155391 0.0082120066373 0.0082046119964 
0.0081871139442 0.007778933326 0.0081743617125 0.0061587967201 0.010013354101 0.0049939442072 0.0054822513566 0.0056839080544 0.0082807253929 
0.0028036538282 0.0035848627725 0.0031949949902 0.0035763381891 0.0033709992219 0.0046634725091 0.0038234590961 0.0034631108719 0.0048258386948 
0.0035485010824 0.0030642974229 0.0036013594861 0.0047408797016 0.0032482916352 0.0024413067297 0.0028028828033 0.0031757988575 0.0037334152544 
0.0048365883463 0.0054890674711 0.0053546279214 0.0076573119681 0.011321618096 0.0080612357866 0.0055640230604 0.0065303630354 0.0072056216063 
0.0055383606598 0.0039336772664 0.0054149020609 0.0063518317715 0.007948764571 0.0070340279706 0.0088914508026 0.014095475927 0.010634732749 
0.0092825759956 0.008808031462 0.0087562008985 0.0095049131201 0.0089190121663 0.005861824431 0.010454588541 0.010518028911 0.0079552666161 
0.0091746992731 0.010319756473 0.0081472030497 0.0083638768779 0.0085828209088 0.0094383665631 0.0099662187505 0.010275635042 0.01113888648 
0.010796172228 0.010036317045 0.010100271752 0.0078198191067 0.0094039591923 0.0089648737885 0.015803395056 0.015850944441 0.008108717772 
0.0082724452054 0.0058287013576 0.0055063981014 0.0061485099643 0.0055820965953 0.0063565806408 0.0053689503479 0.0036853178687 0.0039672394981 
0.0055812221821 0.007241056447 0.0044027383503 0.0033344165105 0.003467979716 0.0031631674481 0.006228972453 0.0030643312095 0.0012304042689 
0.0011610102197 0.0031901851698 0.003059401243 0.00242754611 0.0027754131371 0.0034625479906 0.0041601681531 0.011251041323 0.01854866233 
0.026150999507 0.017220098078 0.016058424355 0.015577733273 0.014819051798 0.013640251587 0.011014288252 0.011437895493 0.01539158443 
0.017191208181 0.016519226346 0.0069556939741 0.0074700592519 0.015938723577 0.0091411306805 0.007995183078 0.0080367501196 0.0081094389755 
0.0081548017009 0.0082395802131 0.0082560040499 0.0083566549266 0.0088721011632 0.009450436629 0.0087023027638 0.0076487014088 0.0084466795972 
0.0074003663852 0.0065675900868 0.006867657532 0.0082749626058 0.0082111430488 0.0091120904139 0.0088203322181 0.0080050839234 0.015713875576 
0.0079507023109 0.0078941071969 0.0094256009977 0.0086515106574 0.0079560798021 0.007940303941 0.0079520784682 0.0080804486685 0.0081120019658 
0.0095444645445 0.009927904007 0.0080179937601 0.0066083086044 0.014135978796 0.01599729252 0.0095410240642 0.0089921271419 0.0082624614325 
0.0094329219343 0.008235098237 0.0082286487451 0.0081435119654 0.0088774514562 0.01655287516 0.032349565344 0.0091751430078 0.0079961208765 
0.0079941991319 0.020110807293 0.017563848431 0.015925913442 0.0079194203501 0.013756959878 0.010031744827 0.039531508357 0.010556624363 
0.010715117613 0.032275147723 0.018905523223 0.018404659593 0.01039909705 0.021416264168 0.020415409645 0.0098625876169 0.0098081705693 
0.0096105973807 0.008751241271 0.018458994797 0.016991222667 0.013009083407 0.01153625133 0.015818858461 0.01053797707 0.010303375653 
0.0096719682886 0.0081652945427 0.010579423694 0.0073418604732 0.017037135441 0.037960644581 0.02037809464 0.0096183547707 0.0099978118225 
0.030358821984 0.030075151641 0.011187302722 0.0088734187115 0.021442798513 0.027644929475 0.011788443404 0.0093648565868 0.015037810826 
0.0080456750623 0.012143785147 0.012088583605 0.011838244034 0.018591684039 0.015893799619 0.01090997037 0.016735552129 0.0074420512439 
0.0066894456198 0.012267290398 0.013723685588 0.019421577077 0.019030603453 0.0080492911951 0.018138733365 0.014484393525 0.0070794134925 
0.0072544200161 0.0064646185561 0.0083691996782 0.0074901990918 0.0081259007415 0.010142499054 0.0097768110723 0.011144442533 0.01044412748 
0.010399011954 0.01017636272 0.0103695869 0.01022444769 0.0099482370851 0.0098151841572 0.010445836568 0.011574291148 0.011340893398 
0.0088003293046 0.010517876204 0.016353329757 0.018428939627 0.019644208934 0.0083679856521 0.0075469800701 0.0077848051727 0.0090184051927 
0.0076613185102 0.0093730002372 0.0086927072437 0.0087188986922 0.010755054865 0.010038256868 0.010019962001 0.010376438169 0.0085111032188 
0.0076915776533 0.0071335574591 0.0082918672833 0.0077892064133 0.0089205906969 0.0090130249392 0.006609366526 0.010029534436 0.0098022914501 
0.01036808607 0.01063609924 0.010919237296 0.0077265935128 0.0082715496002 0.0088881815349 0.0097339505569 0.011009711143 0.0098232231607 
0.0085143770019 0.0095756668155 0.010179098078 0.010260619694 0.0092417985859 0.0098026183109 0.00945807983 0.01897789731 0.018595776775 
0.018537469332 0.0091999773655 0.0091438815703 0.0090610062921 0.0089190106498 0.0089388662921 0.0088938010915 0.009085166289 0.0089553109843 
0.010546066722 0.0098982981986 0.0096839060941 0.0081431325183 0.0080804811957 0.0076319060254 0.0076449851087 0.0086762848542 0.0087529532646 
0.0094638117639 0.0081053779813 0.0075021975545 0.0074695312375 0.0093172859079 0.00973579951 0.0090415389235 0.0079077821071 0.0069474654417 
0.0069636513979 0.0075435795495 0.0068229111356 0.0077645492338 0.0067964874722 0.0098705230589 0.0093703904424 0.010038761002 0.0093005362038 
0.0078028575844 0.0059788082429 0.0071543634976 0.010031056397 0.017477584803 0.0086642102142 0.0093212997629 0.010118402431 0.010209783631 
0.0093550484713 0.0080804780807 0.0062235308079 0.0050822609338 0.0050894463982 0.0049887384945 0.0046314610616 0.0044821320359 0.0053892585962 
0.0074571446563 0.006330605666 0.0081224380943 0.0051504039051 0.0064333329892 0.0059066567923 0.0077186551808 0.0081157034793 0.008038841511 
0.0081745808739 0.0085969497235 0.0090545563152 0.0081648665567 0.0095352606143 0.0090280863999 0.0076837058394 0.0089281729756 0.0075012207658 
0.0075487953695 0.0088903942735 0.0096740715903 0.0089984089779 0.008258676409 0.008109202263 0.0089106624689 0.0093419165421 0.0080507480339 
0.008050690258 0.0081052992712 0.0087800640264 0.007385200272 0.0064659631322 0.0069132724094 0.006916604527 0.0079774542814 0.010300116186 
0.0089541449334 0.0092104725727 0.0099350530063 0.0089388140292 0.0082794212271 0.0092268955621 0.0098520335692 0.0098561542182 0.009187342244 
0.0083524627215 0.025958856941 0.026243583173 0.0079765014582 0.010679069581 0.012462021956 0.049072377084 0.037368922037 0.0078239504254 
0.01637423381 0.0094713981361 0.0099442218957 0.0087308618696 0.008726525785 0.0088015983507 0.0088078066644 0.0088729262777 0.0088026776182 
0.010563593063 0.0098664210338 0.010294468274 0.0096263347804 0.0057803298865 0.018033706937 0.039053735034 0.0087998449598 0.0086666605661 
0.008807838177 0.0086249045437 0.0084890500174 0.0086871271406 0.0086221221501 0.0085657338496 0.0083885158921 0.0097445234203 0.012663210114 