# vtk DataFile Version 4.2
vtk output
ASCII
DATASET POLYDATA
POINTS 18512 float
24.887 -9.98052 1.83737 24.9076 -10.0161 1.83741 24.9006 -10.0048 1.80316 
25.0124 -10.1873 2.22927 25.0271 -10.2126 2.23994 25.019 -10.1996 2.19688 
24.9745 -10.1341 1.76722 24.993 -10.1661 1.76538 24.9782 -10.1413 1.73401 
24.9314 -10.0523 2.02381 24.9218 -10.0348 2.05856 24.9446 -10.0742 2.06179 
24.9231 -10.0405 1.93401 24.9304 -10.054 1.89691 24.9113 -10.0207 1.90369 
25.0335 -10.2277 2.09348 25.0366 -10.2323 2.12318 25.0485 -10.2536 2.09976 
24.7747 -9.79032 1.65647 24.7936 -9.82282 1.6715 24.7912 -9.81962 1.63382 
23.1863 -8.69892 1.41036 23.0904 -8.64552 1.18107 23.0298 -8.55142 1.48009 
25.0596 -10.2699 2.20702 25.0655 -10.2794 2.23691 25.0768 -10.2996 2.21117 
23.2127 -8.67472 1.69781 24.9743 -10.1248 2.10209 24.956 -10.0931 2.09836 
24.9664 -10.1099 2.14138 24.9427 -10.0774 1.82455 24.9369 -10.0663 1.86029 
24.9553 -10.0985 1.85154 24.9575 -10.1049 1.75053 24.9346 -10.0649 1.76008 
24.9483 -10.088 1.78884 24.8717 -9.95442 1.82045 24.8824 -9.97352 1.79648 
24.8651 -9.94352 1.79343 23.3657 -8.83842 1.59705 24.9959 -10.1645 2.0159 
25.014 -10.1962 2.00549 24.9979 -10.1691 1.97421 24.9476 -10.0778 2.12513 
24.9509 -10.0822 2.17239 24.9893 -10.1627 1.65453 25.0068 -10.1935 1.6397 
24.9933 -10.1706 1.62354 24.8733 -9.95452 1.91975 24.8579 -9.92652 1.96444 
24.8794 -9.96402 1.95509 24.8535 -9.92592 1.7033 24.8379 -9.89842 1.71908 
24.8505 -9.91992 1.73494 24.8995 -10.0011 1.87281 24.9986 -10.1748 1.80239 
25.0121 -10.1989 1.7811 24.9078 -10.0115 2.02265 24.9163 -10.0267 2.00332 
25.0032 -10.1754 2.08049 25.0223 -10.2089 2.07097 25.0095 -10.1873 2.04261 
25.0598 -10.2811 1.79958 25.07 -10.2981 1.82398 25.0761 -10.3094 1.79466 
24.928 -10.0566 1.649 24.9395 -10.0771 1.62976 24.9223 -10.0476 1.61098 
25.057 -10.2755 1.82719 25.0433 -10.2522 1.81403 25.0481 -10.2596 1.84877 
25.0797 -10.3143 1.85095 25.0639 -10.2868 1.85234 25.0734 -10.3026 1.88276 
24.8947 -9.99032 1.96558 24.8826 -9.96882 1.98317 25.0547 -10.2682 1.95059 
25.0387 -10.2402 1.96004 25.0558 -10.2691 1.99062 24.9938 -10.16 2.04802 
25.0909 -10.3329 1.8791 25.0964 -10.3433 1.84762 25.0949 -10.3337 2.11256 
25.0965 -10.3375 2.07288 25.0791 -10.3067 2.0931 24.8422 -9.90802 1.63518 
24.8229 -9.87442 1.64251 24.8364 -9.89692 1.67744 21.7436 -7.81732 1.5909 
21.7421 -7.86252 1.3135 21.6006 -7.80672 1.45518 24.8568 -9.92842 1.82305 
24.8679 -9.94692 1.84943 24.9581 -10.1005 1.95681 24.9781 -10.1349 1.96662 
24.9744 -10.1293 1.93723 24.8269 -9.87552 1.85844 24.849 -9.91182 1.93938 
24.8528 -9.91922 1.90662 24.9457 -10.0868 1.6677 24.9774 -10.132 2.03136 
24.9838 -10.142 2.0714 24.9571 -10.1076 1.6284 24.9692 -10.1276 1.66236 
24.9773 -10.1427 1.62526 24.8338 -9.89522 1.56826 24.8147 -9.86202 1.57276 
24.8278 -9.88402 1.60448 24.9927 -10.1637 1.8362 25.0152 -10.203 1.82671 
24.9262 -10.0408 2.11964 24.8759 -9.96622 1.65196 24.8616 -9.94202 1.62537 
24.8573 -9.93352 1.66441 25.1378 -10.4092 2.07012 25.1366 -10.408 2.03956 
25.1197 -10.378 2.06497 21.4929 -7.79692 1.31316 24.8393 -9.90582 1.53497 
24.8218 -9.87522 1.53876 24.8902 -9.98962 1.70227 24.9047 -10.0149 1.69409 
24.8909 -9.99152 1.67233 24.8991 -9.99712 1.99984 24.882 -9.96672 2.02732 
24.8963 -9.99172 2.01748 24.8184 -9.86152 1.83033 24.8388 -9.89712 1.82583 
24.833 -9.88782 1.79546 25.1073 -10.359 1.96935 25.1224 -10.3852 1.9685 
25.1157 -10.3744 1.93776 25.1022 -10.3517 1.90779 25.1163 -10.3763 1.90399 
25.1084 -10.3634 1.87637 25.0552 -10.2709 1.88311 25.0661 -10.2887 1.92126 
24.9883 -10.1532 1.9423 24.9685 -10.1206 1.87857 24.9496 -10.0876 1.88822 
24.8482 -9.91422 1.79347 24.862 -9.93582 1.88094 21.3674 -7.73522 1.56362 
25.0558 -10.2624 2.23833 24.9847 -10.1489 1.86789 24.9842 -10.1472 1.90644 
25.0041 -10.1824 1.87574 24.965 -10.1096 2.06566 25.0239 -10.2227 1.65657 
25.0394 -10.249 1.67773 25.0438 -10.2576 1.63737 25.0326 -10.2399 1.57588 
25.0544 -10.2783 1.55375 25.0276 -10.2322 1.5411 24.8211 -9.86792 1.76815 
24.839 -9.89922 1.7586 25.0687 -10.2864 2.17567 25.0499 -10.2538 2.17562 
24.7895 -9.81442 1.72163 24.9838 -10.1521 1.6934 24.9978 -10.1755 1.72334 
25.0059 -10.1908 1.68222 24.8695 -9.95772 1.54901 24.8869 -9.98722 1.5744 
24.8855 -9.98592 1.53264 25.0292 -10.2281 1.79369 25.03 -10.2289 1.8188 
25.0875 -10.3229 2.03475 25.0782 -10.306 2.06014 24.9642 -10.1156 1.78476 
25.0397 -10.2369 2.15227 25.0221 -10.2064 2.14883 25.0344 -10.227 2.17577 
24.8707 -9.96082 1.51104 25.0654 -10.2915 1.77037 24.9606 -10.1087 1.81551 
24.8262 -9.87762 1.73607 25.0834 -10.3213 1.82357 25.0241 -10.2241 1.61283 
25.0784 -10.3081 1.99886 25.1008 -10.3467 2.00514 25.089 -10.3273 1.96927 
25.0338 -10.2308 1.9986 25.1047 -10.3601 1.75787 25.0833 -10.3232 1.75068 
25.0942 -10.3407 1.80433 25.1126 -10.3645 2.10547 24.8739 -9.96142 1.69343 
24.883 -9.97642 1.72876 25.1196 -10.3788 2.02654 24.8663 -9.95112 1.58728 
24.8519 -9.92692 1.56076 24.9356 -10.0612 1.96308 24.9145 -10.0244 1.972 
24.9287 -10.0485 1.99219 25.0194 -10.2066 1.96691 25.0062 -10.1846 1.92845 
24.9736 -10.1305 1.84205 25.0796 -10.3039 2.23419 24.9889 -10.1637 1.58924 
24.8655 -9.94592 1.73091 24.9239 -10.0484 1.68474 24.94 -10.0756 1.71614 
24.9624 -10.1146 1.70391 24.8989 -10.0087 1.54784 24.9004 -10.0123 1.51674 
24.9743 -10.1394 1.55374 24.9584 -10.1123 1.53535 24.9577 -10.1102 1.56525 
25.0967 -10.3413 1.93932 25.0814 -10.3147 1.94069 24.9449 -10.0873 1.59236 
24.9273 -10.0575 1.56665 24.9157 -10.0309 1.80979 24.9154 -10.0312 1.777 
25.0326 -10.2329 1.84137 25.0224 -10.2145 1.86398 24.8031 -9.84282 1.54076 
24.955 -10.0932 2.02881 25.132 -10.4028 1.93189 24.9707 -10.134 1.52066 
25.041 -10.2376 2.20552 24.9252 -10.0467 1.83299 25.0679 -10.289 2.03106 
25.0608 -10.2756 2.06993 24.8571 -9.93052 1.7625 24.9161 -10.0337 1.73062 
24.898 -10.0025 1.72315 24.8957 -9.99762 1.76026 25.0117 -10.2038 1.57294 
24.8803 -9.96772 1.87887 24.8109 -9.85122 1.73011 24.9081 -10.0239 1.57531 
25.0202 -10.2042 2.10659 25.0373 -10.24 1.87589 25.0429 -10.2486 1.91806 
24.8748 -9.96112 1.76228 25.0238 -10.2217 1.68927 25.0338 -10.2383 1.71258 
25.1232 -10.3893 1.86684 25.0037 -10.1752 2.12262 25.1046 -10.3524 2.04078 
25.0401 -10.2398 2.06702 24.85 -9.91572 1.85256 21.2551 -7.72732 1.42615 
24.7998 -9.83132 1.75825 24.8473 -9.91792 1.59706 25.0095 -10.2009 1.53538 
24.7587 -9.76442 1.59308 24.7755 -9.79402 1.57207 24.7502 -9.75062 1.55501 
25.0933 -10.3419 1.70226 25.1006 -10.3536 1.73723 25.1202 -10.3806 1.99623 
25.1363 -10.4081 2.01262 25.0231 -10.2147 1.89965 24.9942 -10.1741 1.54809 
25.1214 -10.3864 1.85443 24.7777 -9.79692 1.61095 24.7892 -9.81702 1.60008 
25.0451 -10.2609 1.5986 25.026 -10.2189 1.93475 24.9901 -10.1521 2.10196 
21.2312 -7.70132 1.5752 21.1176 -7.70302 1.4382 25.0014 -10.17 2.16421 
24.8479 -9.91152 1.87501 24.9831 -10.1381 2.16861 24.9674 -10.1104 2.18913 
24.9137 -10.0347 1.53923 24.9309 -10.0647 1.52939 20.9756 -7.65952 1.58019 
24.8553 -9.93372 1.52609 24.9087 -10.023 1.65188 24.9863 -10.1447 2.13353 
20.9925 -7.70042 1.34104 25.0555 -10.2646 2.13856 24.9833 -10.1557 1.52516 
25.08 -10.307 2.13794 25.09 -10.3232 2.1858 25.107 -10.3535 2.15529 
24.9391 -10.0639 2.09299 25.0717 -10.3044 1.7031 25.0515 -10.2693 1.70523 
25.0605 -10.284 1.73889 20.7592 -7.63032 1.54666 24.7868 -9.81442 1.54437 
24.7709 -9.78722 1.52844 25.0707 -10.2957 1.96199 24.9433 -10.0757 1.92597 
24.8067 -9.84712 1.61133 24.7958 -9.82922 1.57338 23.4632 -8.95562 1.54746 
23.5713 -9.08762 1.5646 23.4943 -9.03152 1.34066 25.0647 -10.2815 2.1075 
23.4027 -8.90122 1.47226 24.9666 -10.1251 1.59254 24.8928 -9.98852 1.9094 
24.8888 -9.98072 1.93855 24.9041 -10.0073 1.93816 25.0471 -10.2598 1.77136 
25.0274 -10.2262 1.75112 24.9458 -10.0782 1.99377 24.9184 -10.034 1.86756 
25.0476 -10.2538 2.0322 25.0278 -10.2194 2.0361 25.0598 -10.2847 1.66552 
25.0164 -10.2079 1.71764 25.0441 -10.2555 1.73548 25.085 -10.3219 1.91163 
24.8996 -10.0082 1.61157 24.9631 -10.1102 1.91551 24.9441 -10.0871 1.55193 
25.0094 -10.195 1.74773 25.0705 -10.3047 1.61295 24.8227 -9.87232 1.70466 
24.8189 -9.86652 1.67396 25.1267 -10.3884 2.12835 24.8912 -9.99292 1.64069 
25.1218 -10.3786 2.1779 25.1202 -10.3755 2.18813 24.9944 -10.1566 2.21447 
24.8064 -9.84562 1.654 24.8068 -9.84512 1.69244 24.8803 -9.97472 1.61539 
24.9797 -10.142 1.80199 23.2611 -8.77942 1.34143 24.9457 -10.0906 1.5223 
25.0049 -10.191 1.60779 24.9662 -10.1136 1.99539 24.9295 -10.4536 1.54012 
24.9476 -10.3884 1.48767 25.0161 -10.3932 1.61506 24.9302 -10.0564 1.79868 
25.131 -10.3965 2.09998 25.0818 -10.3231 1.65736 25.1335 -10.4052 1.94404 
24.9831 -10.1429 1.99622 24.8614 -10.4521 1.42922 24.8631 -10.5211 1.53994 
25.1354 -10.407 1.99516 24.3486 -10.8797 1.48651 24.3645 -10.8037 1.54816 
24.3602 -10.8848 1.56 24.3518 -10.9711 1.44962 24.3518 -10.8255 1.50224 
24.3706 -10.7557 1.49986 25.0973 -10.3347 2.22848 24.4214 -10.7326 1.56886 
25.1102 -10.3577 2.20791 24.4149 -10.7017 1.45224 24.3729 -11.0028 1.56594 
24.3635 -12.2135 1.5611 24.3457 -12.0907 1.31577 24.3849 -12.091 1.56614 
24.3187 -12.2168 1.31358 24.2861 -12.4669 1.43854 24.2811 -12.5923 1.56334 
24.209 -12.8411 1.56402 24.2243 -12.7171 1.43856 24.2369 -12.8419 1.68868 
24.2737 -12.7173 1.6886 24.2351 -12.6087 1.33029 24.1742 -12.9664 1.5638 
24.1239 -13.0925 1.43837 24.1889 -12.8416 1.43855 24.1296 -13.217 1.68857 
25.0313 -10.3225 1.55179 25.0669 -10.3419 1.64338 25.0619 -10.4027 1.72948 
25.0916 -10.4063 1.80546 25.0868 -10.4416 1.87152 24.0652 -13.3408 1.56402 
24.0207 -13.5932 1.68817 23.9741 -13.7173 1.68853 23.9704 -13.5924 1.43845 
24.8995 -10.5298 1.63772 24.82 -10.5694 1.58077 24.8637 -10.5677 1.67117 
24.7425 -10.6142 1.60635 24.9931 -10.4858 1.72476 24.9274 -10.5295 1.74996 
24.8779 -10.572 1.80028 24.9296 -10.5418 1.87576 24.8002 -10.5973 1.71282 
24.7842 -10.5934 1.84197 24.6895 -10.6212 1.76462 24.8562 -10.5701 1.91891 
24.7347 -10.5874 1.90469 24.9857 -10.5277 1.95844 24.9119 -10.5369 1.99222 
24.8587 -10.5202 2.077 24.8091 -10.5483 2.00063 24.6758 -10.5128 2.11008 
[...]
CELL_DATA 37020
FIELD FieldData 1
Area 1 37020 double
0.00070414864086 0.00054834832026 0.00060637535146 0.00082323701236 0.00066012533585 0.00042711110311 0.00067851245557 0.028528553619 0.00048978442167 
0.031261887476 0.00075057750097 0.00060802765353 0.00079108770493 0.00044844280426 0.032520508349 0.00071238401045 0.00073503592649 0.00083471065343 
0.0004834053779 0.0008166628174 0.00044735536206 0.00072842853728 0.00062122263632 0.00046569104474 0.0006663818712 0.00044725130392 0.00054924366048 
0.00041154374315 0.00049524539538 0.00039700072974 0.00065178876994 0.00056009425228 0.00050720521499 0.00066050758395 0.0007729763068 0.02050473323 
0.00042334528965 0.00055191522309 0.0010321975638 0.00055653731876 0.00055087744386 0.00072441594413 0.0006651352736 0.00070599718463 0.00099514922887 
0.00067518091335 0.00054699045495 0.018426248643 0.0004924142108 0.00056421430419 0.0004284157621 0.00022416427682 0.00064773533281 0.00047026562621 
0.00054782699892 0.00042035560795 0.00070095664609 0.00038935822391 0.00063822334289 0.00055713316361 0.00064878884067 0.023249357849 0.00030048488967 
0.00075300129287 0.00063355064029 0.00071818190815 0.0008693870344 0.00060312120407 0.0005903979494 0.0010125074506 0.00081965913718 0.00047510672947 
0.00069198010883 0.00037883765898 0.00058538386079 0.00036121152184 0.00047303102673 0.00043312692312 0.00058869039545 0.00067445952757 0.0004479856995 
0.00059771810078 0.00055921642392 0.0004821738959 0.00064824324498 0.00044498270518 0.00075113693321 0.00047743565974 0.00072921796164 0.00080936992768 
0.0010702669986 0.00088498050202 0.00049789441017 0.00065344719011 0.00063586100867 0.00055299748844 0.00092494303216 0.00060965989255 0.00033234582784 
0.00055865026917 0.0006803830835 0.00062574133807 0.00096262167839 0.00088650643391 0.00044067793078 0.0004897375768 0.00044858826089 0.00090953140888 
0.00049473654833 0.0005027251643 0.00062643686285 0.00054533499635 0.0006210342573 0.00080104335643 0.00064957532931 0.00058920387789 0.00054723913482 
0.00053606127775 0.00098210223331 0.00046017848937 0.00059929029717 0.00057871742268 0.00060664492073 0.00045027578272 0.0005234577293 0.00057112109553 
0.00049645548368 0.00068945545792 0.00071199830511 0.00071497031383 0.00018710406335 0.00052207268562 0.00080986870869 0.00066354489044 0.00053746824818 
0.00045521385638 0.00050369046337 0.0007160218773 0.00054841583422 0.00047832722489 0.00048406703344 0.00072761233837 0.00068213620024 0.00044459526663 
0.00050827921808 0.00075436503705 0.023473440291 0.00070863574003 0.00070419946354 0.0006687736477 0.00047391234423 0.0008180913658 0.00053440819341 
0.00069828422663 0.00021768011726 0.00070431821147 0.00049818234353 0.00052365706439 0.00079016058344 0.00062471424639 0.00020135786054 0.00046983407944 
0.00052611814832 0.00065526185664 0.00065563116353 0.00063905080845 0.00071572523556 0.00056390229155 0.010346574686 0.00082734812315 0.00040886243004 
0.00041704705258 0.00076980938637 0.00058713521636 0.00079645928968 0.00060474091753 0.00068429244794 0.01820568231 0.00074772965996 0.00057039724421 
0.00067934917604 0.0007107325555 0.00062903105844 0.016146777225 0.00069770452108 0.00040049290028 0.00053277408552 0.0011217078701 0.00090661386019 
0.00063708764731 0.00061357550564 0.00074691908385 0.00069999739414 0.026818318587 0.00062212936163 0.00063123326989 0.00053312846406 0.00063972855505 
0.00067205167887 0.00043728587806 0.00087822564219 0.00080803896642 0.00054287290485 0.0007911656245 0.00054868631826 0.00074295615495 0.00046149586854 
0.018429294752 0.00091660521151 0.00053832667106 0.00048745204502 0.0005960883652 0.0004142815002 0.011363464498 0.00076191359564 0.00050180298159 
0.00047395417507 0.00078333453291 0.00067913321368 0.00067073298452 0.00071698369073 0.00066248969906 0.00077147528259 0.00044556717083 0.00072145938477 
0.00060033094577 0.00080332870194 0.00048278511557 0.00053821549887 0.00062688631651 0.00072445924635 0.00055776096099 0.00079711865566 0.00071913939269 
0.00062928893504 0.00078890673372 0.00087036595222 0.00078552535804 0.00038553630714 0.00071888431329 0.00052406584025 0.00065068065156 0.00099928080854 
0.00051992265502 0.00068884916454 0.0077855055825 0.00092164645531 0.00095560662224 0.00077087065246 0.00058970336972 0.00055824122708 0.00064245186557 
0.00048243398179 0.00068045912447 0.0006871808716 0.00099177548011 0.000415226732 0.00059618020613 0.00067149173523 0.0012769662056 0.000526438409 
0.00052388082976 0.00057769587728 0.00070528420277 0.00058103186379 0.00083229567218 0.00068353188729 0.00060463525387 0.00070320881876 0.00063387521858 
0.0006326432674 0.0001884342667 0.00073559994509 0.00061933607799 0.00095249576423 0.00062587527335 0.00079952492406 0.00050053175701 0.00052966053496 
0.00054516039803 0.00069982846801 0.0007035083326 0.000628542636 0.00059367150026 0.00086195553737 0.00064247848794 0.00074314539392 0.00072395883318 
0.00047352305859 0.00064555828608 0.000728754712 0.00063875305708 0.00068332719056 0.00083812365285 0.00070429492983 0.016387799722 0.00064874383769 
0.00064005762515 0.0007248652299 0.00057877951887 0.00042838598575 0.00057839813859 0.00047118798021 0.00060271602371 0.00060252323328 0.00062041881734 
0.00060303433403 0.00047233765266 0.00064597166682 0.00044133201041 0.00077575004299 0.00054347359523 0.00059838622786 0.00065589732289 0.00035658569828 
0.0010260984678 0.00059256656918 0.00055849655812 0.0054862397425 0.00044273834778 0.00069158420288 0.00060548771365 0.00059304211371 0.00070334800366 
0.00053113226837 0.0010671504111 0.00089102328567 0.0010126388915 0.00069031125029 0.00070573822058 0.00098087120675 0.00071116873292 0.00078118501442 
0.0010389051218 0.00059131662842 0.00020723828149 0.0005491422135 0.00092133713653 0.00067966214789 0.00060575353439 0.00083498332377 0.0009391224523 
0.00074830273433 0.00073366934062 0.00049672519211 0.00057518698194 0.0050556322044 0.00574751901 0.00087928984654 0.00081917721615 0.00073627597949 
0.00076549249419 0.00041718767659 0.0011012032862 0.00056703818144 0.00077837245191 0.00034913515361 0.00057003273378 0.00061525173082 0.00082004238732 
0.00051635954565 0.00052602762332 0.00064111212609 0.00035548817013 0.00081553985876 0.00062011296296 0.00063658138442 0.00064592464386 0.00077206993074 
0.00054634912034 0.00075710461905 0.00069230499946 0.00056914255836 0.0011110989466 0.00056207543714 0.00050765574342 0.00083292275198 0.00041264911502 
0.00051905541783 0.00053573464563 0.00053227495991 0.0029974550697 0.0005576658625 0.00081290952152 0.00072903507907 0.00050667822918 0.00057075616411 
0.00031415978149 0.0035075157131 0.00057241294202 0.00057095189816 0.0004404023979 0.0017055087078 0.00039899545645 0.0004803540975 0.00069960001524 
0.00036612101607 0.00047918367874 0.00070964737956 0.00065991398593 0.00056026450471 0.00064046409458 0.00042353348839 0.0028786504035 0.00039018813164 
0.00054712042346 0.0005094583826 0.0011220146809 0.00051280181182 0.00035213222339 0.00059946440688 0.00068102919341 0.00058369407836 0.00059318643837 
0.00050884651742 0.00070273686391 0.0005789218613 0.00040836741319 0.00056010073362 0.00057554916096 0.00097323900893 0.00036297580868 0.00057408254432 
0.00069494885317 0.00076835348157 0.00034993284861 0.00057496435831 0.00048259340073 0.0006994190964 0.00056290910498 0.00071750951432 0.0011463151936 
0.00053771130172 0.00044084419932 0.0037493995343 0.00073346302886 0.00066113964873 0.00073964413881 0.00084122197763 0.00056236723484 0.00050063638355 
0.00042142670732 0.0022935132427 0.00074802020862 0.00065137601013 0.0017878506925 0.0068820217142 0.00049081054748 0.00098621284413 0.00085041351516 
0.0004974040639 0.00067450684884 0.00032928883623 0.00049377194862 0.00077656604834 0.00050898435824 0.00069210005054 0.00041693156704 0.00094767427993 
0.00072917097964 0.00052738783598 0.0005164334214 0.0008091034493 0.00050146330354 0.0007557974395 0.00057676008817 0.00092436949067 0.00067637327761 
0.00099398623666 0.00067663726097 0.00050885986483 0.00077228748648 0.00059614972437 0.00069561967079 0.00077280588607 0.00076441340051 0.0011169681537 
0.00076337554883 0.00057568262457 0.00049849168427 0.00066117180919 0.00069124034641 0.00049846629846 0.00045093751316 0.000612704174 0.00067587619224 
0.0005780997522 0.00059109798024 0.0007496818334 0.00045472878549 0.015736123823 0.00058898537513 0.016186732796 0.00044736985454 0.00042237004831 
0.00065723662827 0.00051282623181 0.00084909226956 0.00068362674422 0.00047037215091 0.0006676801586 0.00069454548883 0.00042868538828 0.0004392690953 
0.00056684692788 0.0006974389379 0.032378092477 0.00067849847095 0.00096625989685 0.00086609396977 0.00058320551789 0.0007628515358 0.00074640105457 
0.00026670367845 0.00071594980992 0.00068199179299 0.00056707201897 0.00064223759486 0.00066241270759 0.00077079047963 0.00094875301627 0.00041967165945 
0.00033947002155 0.024418886646 0.008323987958 0.0011122012285 0.00052878054236 0.00085416663395 0.00043190875494 0.00083060906703 0.00073395627697 
0.0010067235549 0.00074086804893 0.00056324458939 0.00054863641554 0.00056506931891 0.00078343610089 0.00054296700747 0.00039751751053 0.0005069155871 
0.0010708220208 0.00063106653971 0.00045735521804 0.00058702169914 0.00084559293077 0.00066011185145 0.00056180209255 0.0013507723373 0.0006535069784 
0.00055159058471 0.00077733929144 0.0009488993277 0.00037196477553 0.00064749131705 0.00054880013899 0.00076096383006 0.00066214925879 0.00057665342165 
0.0006794881318 0.00056642873587 0.00046688340374 0.00065347506602 0.00066639901654 0.00053809383165 0.00061413140458 0.00095240348071 0.00069848429392 
0.00062779573921 0.00043882788315 0.016532865369 0.00092548848242 0.00066171874297 0.00075201293208 0.00077237833898 0.00068088810261 0.00073250986988 
0.016416994767 0.00057713354515 0.00059668704886 0.00068747080978 0.00044861993364 0.00045919137626 0.00058985205639 0.00065582624637 0.00046827820699 
0.00073946433655 0.00052030156259 0.00050628369126 0.00077090297238 0.00064591865144 0.00036519872879 0.00081498314625 0.00092120399888 0.014233835933 
0.00076435196604 0.00061750188588 0.00058980765829 0.00058062215964 0.00070165600787 0.00064217624448 0.01639246507 0.00058247498796 0.0006449417437 
0.00046032273879 0.0005564809163 0.00075461831811 0.00068580163559 0.00046142030718 0.0082528181852 0.00070444621847 0.00074718971897 0.00053617691874 
0.00059839816332 0.00051026608733 0.024567701426 0.0016318600085 0.0017230066498 0.00069374255299 0.00217747679 0.0019867709965 0.00040479866172 
0.0019385733724 0.02486883779 0.016849491701 0.0048697570623 0.004639145212 0.0047647579815 0.0039690185806 0.0049811338587 0.0069439589872 
0.0042664204656 0.0040543979556 0.0043295312796 0.0087073358861 0.0064243522485 0.003548431656 0.0031930254562 0.0026380596672 0.0031165736489 
0.0034502426688 0.0034361427618 0.0039139458315 0.0042005817142 0.0025500587354 0.014582617003 0.016823848998 0.017003537744 0.015795326528 
0.0080982142044 0.015483874446 0.0050434018745 0.0076053050653 0.010587210804 0.0079427944257 0.0052574807474 0.0084358611507 0.0090235823774 
0.0083062627575 0.0089366803369 0.0099232064439 0.0081616289512 0.0070974895141 0.0083460009961 0.0077301859285 0.017173170874 0.015900855308 
0.0074901516264 0.0080987487146 0.013381035783 0.0065464200093 0.0080447226595 0.016435747056 0.0090002642631 0.0092504999149 0.011200927319 
0.029491692696 0.0079904161235 0.0080512694164 0.0092826088381 0.0080308489386 0.008250542084 0.0091120106561 0.0082640529787 0.012728864766 
0.0087613392903 0.008008608141 0.008244223124 0.0082516903838 0.008211247521 0.0083077098039 0.0083088329002 0.008209034315 0.0085878779328 
0.018257309992 0.0090449835357 0.0080032351904 0.026060137298 0.014491509592 0.039578695335 0.012362412929 0.040639187117 0.015138258588 
0.014907333121 0.0091406610793 0.022141151736 0.018854739149 0.0085732598902 0.0233633221 0.0085611900339 0.0065582070712 0.0081030066746 
0.0093719259408 0.015318415339 0.023083467135 0.016598110744 0.026728744967 0.019971878217 0.016786792846 0.013565445084 0.035610832437 
0.02913590704 0.022044170927 0.014977428959 0.018737827782 0.0073178199934 0.0095210127247 0.01062959626 0.010264296655 0.019244850272 
0.0099898858907 0.0095069185964 0.0094146689802 0.0094774919081 0.0097143788577 0.00988103316 0.0093396384211 0.010587972502 0.010068725068 
0.0094028652547 0.009322735602 0.020764478153 0.0092195593363 0.021821560435 0.0091193191442 0.018324084595 0.0097927604506 0.018867431203 
0.028912933461 0.014269789025 0.016996067491 0.0099955546429 0.014436524169 0.0098051416341 0.020047429241 0.013069238652 0.012523473784 
0.025782844683 0.030194734207 0.0085958635925 0.032933923815 0.02585756502 0.030252726476 0.032176695797 0.016048461509 0.012703219397 
0.013255287088 0.0097310551656 0.035468285795 0.009228177217 0.010400859861 0.010412557577 0.018760751166 0.010545086691 0.0079839730354 
0.010682672836 0.0069476201326 0.028522664747 0.035899222397 0.0065204700717 0.044777862014 0.0063728113987 0.0033641567209 0.010935903505 
0.023656567429 0.031247668192 0.00355074267 0.0086564504556 0.00817177038 0.017851259658 0.017029717941 0.025290989108 0.022357392756 
0.01008619178 0.0092523639684 0.01579430386 0.022573162866 0.017218591014 0.009118519919 0.021039104802 0.011373021146 0.01967360482 
0.037012361035 0.011153911602 0.0074313025442 0.019267827896 0.020409228233 0.014210357573 0.049076330027 0.034971125761 0.019854552172 
0.0083426275377 0.017221534288 0.0059625820865 0.027497605387 0.015822914664 0.018584811828 0.01024399725 0.020201862524 0.034752954921 
0.019007604139 0.019995977157 0.019992954603 0.010501353517 0.0079665809235 0.035676719318 0.011784328695 0.010010834263 0.0099899760891 
0.010678363126 0.028922949293 0.028350635401 0.020690398341 0.017864022628 0.0097032453521 0.017386280112 0.010400710713 0.0094842970627 
0.014711765774 0.021033583175 0.0091810555972 0.022139158525 0.029200318107 0.0083962489967 0.0085647045624 0.0095290071908 0.010153926572 
0.016339945519 0.0092039583459 0.029564860493 0.017804425491 0.017488047487 0.0085740262642 0.008669750327 0.0086782645665 0.0078095796057 
0.0071337188088 0.0091490789252 0.0076419330017 0.0041904332969 0.010194156482 0.01754082892 0.033664273719 0.019439711535 0.0065985508275 
0.0085972258695 0.010326775816 0.020259908071 0.03799603648 0.0092090573184 0.016025070241 0.020052892551 0.009732140206 0.0080524722895 
0.027870401347 0.022418693376 0.013446456726 0.018484240057 0.018306847006 0.0092669784138 0.0093272250806 0.010183160657 0.0082999546086 
0.024488366842 0.015957267969 0.0081509322633 0.0091869928437 0.011718921386 0.010376434817 0.0092099785427 0.0086784992686 0.010313332089 
0.012815611309 0.0085030328414 0.011412717922 0.02112624929 0.0098661394614 0.008436024951 0.0045091239561 0.0078281322203 0.030928801861 
0.0064218925038 0.036493073931 0.018917857626 0.020615168566 0.015316355206 0.016901792728 0.016149905715 0.017584181484 0.022631646622 
0.032240443586 0.03456073013 0.012234473862 0.0087992568883 0.0081326785773 0.019934292821 0.02118438124 0.010561221472 0.0085286314064 
0.0099434765972 0.018364043492 0.017458017685 0.0090921758041 0.018010100542 0.0091802208663 0.0076338346709 0.0079156697132 0.0099535001694 
0.0089605622077 0.0088710996629 0.028667017428 0.01070265172 0.014584085609 0.0089778492215 0.017018654236 0.018434488526 0.01747046941 
0.0096983531448 0.0098674640078 0.0080400936001 0.0088536416323 0.010860826513 0.010287612113 0.010521752134 0.0078500591136 0.021176464657 
0.008513999554 0.0088132766703 0.0090307356023 0.0091105126916 0.0094896265843 0.010265632492 0.016334499038 0.0095632580554 0.010746075339 
0.010136570376 0.019798002792 0.0099788246448 0.0082135149169 0.010331727003 0.0094028760086 0.020397793753 0.0096591721188 0.020723870012 
0.0057944305133 0.0086630795773 0.035369282036 0.05012322861 0.019714791032 0.016186527763 0.010833167186 0.011510455898 0.0084769806698 
0.007227158037 0.020277134849 0.0077409709537 0.0056474834931 0.0041607882054 0.0072386750339 0.0071051741546 0.0061287297202 0.0055437901531 
0.0068777842476 0.010186537294 0.0051121500662 0.0080704088999 0.0048685797036 0.013788773988 0.012234300366 0.017828162556 0.0082346303266 
0.0095916896388 0.020149030542 0.019732812775 0.03067342349 0.0084151600961 0.028240334774 0.018111727322 0.02060531507 0.01524151434 
0.016118519793 0.02051651237 0.012453079335 0.018942325371 0.0083851084093 0.019100054835 0.016023966346 0.018037208442 0.026976397011 
0.013258611726 0.01211113456 0.019126768744 0.019969896223 0.020454569974 0.020579495577 0.011354475886 0.012387107532 0.0090370477141 
0.013379643786 0.0068893466799 0.0072546721673 0.0079422917662 0.00464451719 0.0033564952522 0.0032217546084 0.0028157108067 0.001953730774 
0.0023575944508 0.0020842627679 0.0023322430005 0.0028356247228 0.0032496806833 0.003214503716 0.0027714381595 0.0020609876028 0.0023683225353 
0.0018178117015 0.0027102508383 0.0027172070049 0.0022705840842 0.0017806717454 0.0027756744721 0.001950775216 0.003042174538 0.0020863845182 
0.0028983761509 0.0018844606831 0.0020604902187 0.0024007677328 0.0026495450381 0.0018246499624 0.0022127602194 0.0067707306033 0.006649536676 
0.0065288325718 0.0053818654527 0.023158594501 0.016475109728 0.0066743064595 0.0082509748949 0.016048818919 0.013033068648 0.0059316675443 
0.0064784587184 0.011241264496 0.01879452342 0.0096257998541 0.018542154185 0.018659291177 0.0093179608396 0.0093543924659 0.0080950421683 
0.018042456586 0.0069751536276 0.011412509449 0.023967330692 0.0048169680378 0.0074922711334 0.011918698766 0.0078706759439 0.0067062884912 
0.0096506655194 0.0035432756282 0.0036019851216 0.00247075653 0.0031788743163 0.0028327664667 0.0054218124431 0.0036460975053 0.0026727604053 
0.0024596123703 0.0017375577873 0.0019134479019 0.0017772628824 0.0023146068292 0.001998622152 0.0023441712605 0.0035626589604 0.0051815000082 
0.0042278103499 0.014970252352 0.0091900576431 0.015045134767 0.013727740359 0.010021701619 0.0069007257484 0.010150680705 0.0089006473617 
0.016899971568 0.0079768844829 0.0080113097074 0.0065763090383 0.0079664500621 0.0053487424532 0.0042039116989 0.0038717213136 0.0033850103399 
0.0071701388372 0.0079154086829 0.0032838019397 0.0037975612508 0.0063524849475 0.0061087686633 0.030820317294 0.009256608517 0.0049443634389 
0.012729566307 0.016637945562 0.0078186523321 0.0086197770579 0.0083922880353 0.0077633705175 0.0077630164309 0.0089070481313 0.011118219361 
0.0080357458245 0.0082185441639 0.0083443295145 0.0081154321885 0.0089923970492 0.0088925138138 0.0071170683763 0.0062446374729 0.0077089429591 
0.0087797018652 0.0080752071109 0.0081636999731 0.008144439199 0.0065168555762 0.0050759126497 0.0059611875749 0.0069750525758 0.0081826224891 
0.0082468947586 0.0082611556272 0.0082657252569 0.0082363861128 0.0082296454146 0.0065559473613 0.006443912689 0.0058787836435 0.0095754501053 
0.0061850270264 0.009366217383 0.008378684108 0.0083914947008 0.0083783165064 0.0083867636848 0.0084047142211 0.024834509691 0.025049780391 
0.0082834499471 0.0081705038859 0.0082762722723 0.0071716842064 0.0083668153141 0.0081938692253 0.0082277406437 0.0083820798756 0.016654364845 
0.033940070243 0.025354041299 0.033814910814 0.0084775059308 0.0084565451842 0.0085217298425 0.0084184801596 0.0083922217188 0.0085045133142 
0.042382352157 0.0083928284671 0.0083347834529 0.015041562423 0.0068212785972 0.006294563571 0.0068561863064 0.0083277559714 0.015731152999 
0.023238622029 0.0091986851609 0.0062467236586 0.0033579302784 0.0047064831198 0.0072912883338 0.0049604069045 0.003104533209 0.0030994909413 
0.0030960564037 0.0043199777697 0.0040920520899 0.0041098537886 0.0029636414061 0.0048747907893 0.0043738996884 0.0066588186847 0.013296994712 
0.0084625929767 0.0092531151837 0.010604722928 0.0086089235723 0.0069089980918 0.0089220851135 0.0085373744391 0.0085129254131 0.0079642875525 