# vtk DataFile Version 4.2
vtk output
ASCII
DATASET POLYDATA
POINTS 22890 float
13.4313 -16.0661 2.82219 13.5628 -16.0913 2.84397 13.5628 -16.0793 2.9162 
13.4596 -16.0529 3.16957 13.5628 -16.0438 3.1037 13.5628 -16.0177 3.2287 
13.4359 -16.0536 3.40704 13.4974 -16.0113 3.46927 13.4538 -16.0377 3.52487 
13.525 -15.972 3.53369 13.4832 -16.0018 3.60208 13.4956 -15.9665 3.68086 
13.5274 -15.9169 3.61965 13.4834 -15.9573 3.75468 13.4457 -16.0023 3.80503 
13.4506 -16.018 3.69063 13.5144 -15.8938 3.71293 13.5446 -15.8231 3.65901 
13.5628 -15.8413 3.59407 13.5628 -15.89 3.5412 13.5628 -15.9663 3.42894 
13.5853 -15.8841 3.45306 13.5628 -15.9704 3.4162 13.5975 -15.913 3.36892 
13.5628 -15.9872 3.3537 13.6082 -15.9376 3.29411 13.6366 -15.8511 3.30448 
13.6137 -15.8345 3.40267 13.6284 -15.7506 3.34772 13.6474 -15.7078 3.26817 
13.6251 -15.6067 3.28541 13.6127 -15.6747 3.3811 13.5959 -15.5147 3.29965 
13.5892 -15.6181 3.43221 13.5628 -15.4663 3.36182 13.5628 -15.5913 3.50755 
13.5416 -15.5695 3.55647 13.5463 -15.7 3.64313 13.5192 -15.6038 3.67253 
13.5281 -15.7696 3.72361 13.5628 -15.7163 3.5954 13.51 -15.7038 3.78527 
13.4852 -15.5709 3.76952 13.4821 -15.655 3.86609 13.4937 -15.7963 3.86638 
13.4727 -15.7681 3.96365 13.4768 -15.8612 3.91691 13.4523 -15.9072 3.97802 
13.4527 -15.9644 3.90039 13.4797 -15.9067 3.84971 13.5082 -15.8482 3.79217 
13.4089 -16.0144 3.96186 13.5628 -16.1099 1.9787 13.499 -16.0869 2.01336 
13.5628 -16.1018 1.8537 13.4978 -16.0934 2.13838 13.5628 -16.12 2.1662 
13.4974 -16.0978 2.26338 13.5628 -16.1238 2.2912 13.4979 -16.0998 2.38836 
13.5628 -16.1242 2.4162 13.4997 -16.099 2.51331 13.4722 -16.0427 3.28502 
13.5034 -16.0209 3.37422 13.5038 -16.0951 2.63829 13.5628 -16.1115 2.6662 
13.6351 -16.1075 2.70508 13.6486 -16.1165 2.63269 13.6849 -16.1339 2.48165 
13.7025 -16.1236 2.54192 13.7155 -16.0974 2.66875 13.7597 -16.0881 2.59845 
13.759 -16.101 2.53589 13.8145 -16.0558 2.54313 13.7866 -16.0361 2.63479 
13.8298 -15.9941 2.58573 13.8122 -15.9638 2.6934 13.757 -16.0312 2.71066 
13.7352 -15.9899 2.85488 13.6807 -16.075 2.81077 13.6975 -16.0902 2.73884 
13.6189 -16.054 2.92674 13.6912 -16.0465 2.86044 13.6939 -16.0166 2.91948 
13.6471 -16.0153 3.00007 13.696 -15.9866 2.97367 13.732 -15.9432 2.91698 
13.69 -15.9034 3.08137 13.7461 -15.8588 2.91648 13.7101 -15.8269 3.0522 
13.6841 -15.8321 3.14941 13.6536 -15.9186 3.16507 13.6438 -15.8861 3.23433 
13.6634 -15.7645 3.21241 13.6873 -15.7252 3.12049 13.656 -15.6124 3.16297 
13.6811 -15.5854 3.03445 13.6452 -15.4654 3.04394 13.6149 -15.4723 3.17913 
13.5628 -15.3413 3.18783 13.5628 -15.2475 3.0412 13.5098 -15.2104 3.16427 
13.5011 -15.1192 3.0488 13.5628 -15.1719 2.9162 13.5063 -15.0509 2.91571 
13.4367 -14.9882 3.03415 13.4043 -15.0891 3.28838 13.3801 -14.9276 3.13397 
13.3539 -14.9892 3.30589 13.4274 -15.2001 3.3989 13.5232 -15.3274 3.29692 
13.4832 -15.3284 3.42811 13.5349 -15.443 3.42418 13.484 -15.4766 3.64689 
13.4288 -15.3828 3.69322 13.4475 -15.497 3.81943 13.3889 -15.3419 3.78576 
13.3775 -15.2431 3.65423 13.4058 -15.2169 3.50648 13.3403 -15.0896 3.53672 
13.3082 -15.0875 3.66383 13.3347 -15.2148 3.7761 13.2535 -15.0978 3.9082 
13.2588 -15.0267 3.78508 13.2692 -14.9734 3.66524 13.233 -14.9009 3.73793 
13.254 -14.8984 3.62097 13.2917 -14.9869 3.5578 13.2712 -14.8963 3.51535 
13.3167 -14.9838 3.42312 13.2912 -14.8844 3.40485 13.3125 -14.8993 3.32127 
13.3399 -14.8885 3.20608 13.2873 -14.7788 3.28809 13.2907 -14.8346 3.33679 
13.2757 -14.7895 3.36329 13.2715 -14.7246 3.32501 13.2845 -14.709 3.26936 
13.3074 -14.6626 3.29667 13.2892 -14.6993 3.35876 13.3259 -14.6702 3.35237 
13.3684 -14.6738 3.28527 13.3218 -14.6702 3.25257 13.3835 -14.6612 3.2205 
13.3282 -14.6906 3.20907 13.2981 -14.7353 3.23077 13.3184 -14.7181 3.17076 
13.3335 -14.8387 3.15905 13.3327 -14.7201 3.10823 13.3402 -14.7886 3.10457 
13.3551 -14.7625 3.04245 13.3527 -14.7075 3.03807 13.3537 -14.724 2.97936 
13.3702 -14.8239 3.03756 13.3751 -14.7612 2.91747 13.3649 -14.7015 2.91462 
13.3781 -14.726 2.85608 13.4137 -14.7699 2.75935 13.3883 -14.7017 2.7784 
13.4107 -14.7287 2.68333 13.4555 -14.8168 2.66126 13.438 -14.7455 2.56657 
13.4054 -14.6451 2.50847 13.4471 -14.7075 2.42284 13.4992 -14.8546 2.53254 
13.5628 -14.9302 2.4162 13.5628 -14.9883 2.5412 13.5628 -15.0417 2.6662 
13.5926 -15.1 2.66686 13.5628 -15.1032 2.7912 13.508 -14.9907 2.79732 
13.4105 -14.8499 2.90573 13.4512 -14.88 2.79734 13.646 -15.2099 2.64622 
13.6862 -15.3413 2.6939 13.7158 -15.3347 2.56328 13.6861 -15.2122 2.48522 
13.6251 -15.1205 2.55164 13.6492 -15.0998 2.42921 13.7225 -15.2122 2.33524 
13.7146 -15.0954 2.16394 13.783 -15.2135 2.0663 13.7459 -15.1051 2.04073 
13.8106 -15.2043 1.9274 13.688 -14.9767 2.04329 13.6518 -14.9703 2.17684 
13.61 -14.8803 2.14744 13.6325 -14.9885 2.27013 13.4791 -14.7145 2.28947 
13.5628 -14.754 2.0412 13.4473 -14.6063 2.18152 13.4791 -14.5984 2.04273 
13.5628 -14.7114 1.9162 13.5047 -14.5819 1.89278 13.4484 -14.4891 1.96239 
13.4161 -14.4924 2.11288 13.407 -14.4075 2.02607 13.4166 -14.3709 1.91878 
13.3907 -14.343 2.02817 13.3621 -14.339 2.16544 13.3683 -14.3974 2.21437 
13.3934 -14.3148 2.23169 13.4005 -14.2676 2.15186 13.3646 -14.2902 2.10376 
13.369 -14.2284 2.06202 13.391 -14.2074 2.08341 13.3265 -14.1511 2.01452 
13.3599 -14.1275 2.04604 13.264 -14.13 2.0061 13.2491 -14.0874 2.05537 
13.3128 -14.0744 2.03696 13.2682 -14.0374 2.09508 13.2983 -14.0087 2.04404 
13.3321 -14.0244 1.97647 13.3735 -14.1062 1.99617 13.4036 -14.0699 1.92532 
13.4394 -14.1541 1.97433 13.4833 -14.1633 1.91139 13.4923 -14.1956 1.96519 
13.4338 -14.1701 2.02516 13.4852 -14.2244 2.0551 13.5628 -14.2468 1.9787 
13.5628 -14.2654 2.0412 13.4454 -14.222 2.14376 13.5628 -14.3029 2.1662 
13.4824 -14.2872 2.24757 13.5628 -14.3481 2.2912 13.5135 -14.3444 2.36154 
13.5628 -14.4007 2.4162 13.8071 -14.5798 2.32082 13.8158 -14.5081 2.09776 
13.954 -14.6483 2.156 14.069 -14.7871 2.30138 13.7903 -14.6118 2.43344 
13.947 -14.7876 2.55762 13.762 -14.6303 2.53255 13.8198 -14.7261 2.64371 
13.6956 -14.6552 2.69243 13.5628 -14.5392 2.6662 13.5628 -14.4663 2.54035 
13.513 -14.4746 2.61084 13.4415 -14.3511 2.49752 13.4366 -14.3781 2.54549 
13.3988 -14.3724 2.48222 13.3887 -14.3411 2.42332 13.4622 -14.35 2.45985 
13.5192 -14.3965 2.46387 13.4716 -14.3374 2.41054 13.3962 -14.3304 2.35106 
13.3593 -14.3928 2.35654 13.3663 -14.4007 2.41956 13.3578 -14.4642 2.36849 
13.372 -14.4692 2.30752 13.3685 -14.4034 2.29351 13.3917 -14.4986 2.24771 
13.4229 -14.616 2.31268 13.3725 -14.3336 2.28421 13.4285 -14.286 2.2912 
13.4375 -14.2456 2.21394 13.4629 -14.3076 2.3365 13.3975 -14.6041 2.43219 
13.3649 -14.5124 2.41765 13.3789 -14.5771 2.5276 13.3656 -14.5878 2.66545 
13.3579 -14.5264 2.60213 13.3641 -14.5186 2.53351 13.3519 -14.4758 2.48107 
13.3551 -14.4649 2.54589 13.3636 -14.416 2.48338 13.389 -14.4638 2.60649 
13.3914 -14.5236 2.6684 13.4105 -14.4663 2.65965 13.4193 -14.4992 2.71987 
13.4521 -14.4819 2.69879 13.4649 -14.5032 2.72166 13.4432 -14.5234 2.77207 
13.3946 -14.5441 2.75081 13.4176 -14.5564 2.80483 13.3781 -14.5892 2.79406 
13.3923 -14.5979 2.86124 13.3679 -14.6539 2.84996 13.381 -14.6437 2.7838 
13.3713 -14.587 2.7287 13.3792 -14.6553 2.72352 13.3882 -14.6435 2.91217 
13.4087 -14.5953 2.91394 13.4019 -14.6323 2.9791 13.4404 -14.6035 2.97241 
13.4613 -14.5932 2.91158 13.5158 -14.6199 2.8943 13.5017 -14.5888 2.84607 
13.4477 -14.567 2.86457 13.4865 -14.5611 2.79699 13.5628 -14.5913 2.77797 
13.5628 -14.6305 2.8537 13.6813 -14.7063 2.81339 13.5628 -14.661 2.9162 
13.5628 -14.7106 3.0412 13.4418 -14.6313 3.0326 13.4941 -14.6843 3.10101 
13.5628 -14.762 3.1662 13.4936 -14.7161 3.18421 13.436 -14.6676 3.16205 
13.4425 -14.6496 3.09241 13.391 -14.6919 3.10354 13.3748 -14.6943 3.1601 
13.4421 -14.6907 3.23539 13.3983 -14.6686 3.04321 13.3684 -14.6761 2.98062 
13.501 -14.741 3.25208 13.438 -14.706 3.29908 13.3796 -14.6901 3.34433 
13.42 -14.7238 3.37241 13.4819 -14.7574 3.34356 13.4314 -14.7551 3.44239 
13.3285 -14.7036 3.47363 13.3586 -14.7023 3.40598 13.3072 -14.6837 3.4221 
13.2913 -14.7136 3.47913 13.2703 -14.733 3.45095 13.2688 -14.7157 3.40553 
13.2726 -14.7768 3.41696 13.2594 -14.7931 3.476 13.2761 -14.8229 3.41813 
13.2712 -14.7404 3.37446 13.2632 -14.8473 3.48463 13.2593 -14.8097 3.53289 
13.2468 -14.851 3.572 13.2592 -14.8028 3.6004 13.2941 -14.737 3.54956 
13.2749 -14.7586 3.50636 13.3167 -14.7153 3.54201 13.3182 -14.7336 3.59628 
13.3868 -14.7659 3.56496 13.3106 -14.7563 3.66301 13.2887 -14.7556 3.59796 
13.2737 -14.793 3.66966 13.2424 -14.83 3.65704 13.2125 -14.7759 3.72175 
13.2183 -14.8409 3.72767 13.191 -14.8421 3.81032 13.1876 -14.896 3.86486 
13.152 -14.8295 3.90843 13.1716 -14.7446 3.81787 13.1456 -14.7304 3.85969 
13.0958 -14.7834 3.99669 13.1337 -14.8985 4.02304 13.0493 -14.8001 4.1356 
13.1002 -14.9027 4.17662 12.9857 -14.8021 4.27258 13.0521 -14.8855 4.31939 
12.9472 -14.812 4.36118 13.0402 -14.9086 4.42053 13.1232 -14.9909 4.40541 
13.0687 -14.9609 4.52025 12.916 -14.8456 4.47143 12.9129 -14.8897 4.56667 
13.0151 -14.9572 4.58909 13.1085 -15.0234 4.60258 13.1323 -15.0224 4.50234 
13.1858 -15.097 4.55381 13.1826 -15.095 4.44256 13.2384 -15.1956 4.52607 
13.2129 -15.1487 4.60615 13.1435 -15.0728 4.65751 13.2103 -15.1845 4.71713 
13.1866 -15.1758 4.76134 13.1126 -15.091 4.74136 13.1121 -15.1683 4.84067 
13.0545 -15.095 4.8164 13.0639 -15.1579 4.88146 13.0058 -15.1113 4.86512 
13.5628 -16.004 3.2912 12.918 -15.1337 4.92682 12.9712 -15.1755 4.94921 
12.9778 -15.2733 5.01875 13.075 -15.2947 4.9831 13.0548 -15.2444 4.96585 
13.1613 -15.5949 4.98663 13.2046 -15.6102 4.94386 13.1839 -15.5005 4.96356 
13.2775 -15.718 4.81239 13.2923 -15.5787 4.80208 13.2523 -15.6604 4.85518 
13.2302 -15.587 4.91224 13.2563 -15.5317 4.85563 13.3201 -15.6429 4.73316 
13.3134 -15.7556 4.72726 13.3365 -15.6986 4.68161 13.3459 -15.8529 4.57216 
13.3947 -15.8301 4.38333 13.4138 -15.7176 4.29299 13.3925 -15.7116 4.42836 
13.3117 -15.8461 4.68118 13.2121 -15.4485 4.91469 13.1373 -15.37 4.9659 
[...]
CELL_DATA 45780
FIELD FieldData 1
Area 1 45780 double
0.0049247330861 0.0067421906192 0.0036588328538 0.0035515290698 0.0034556018484 0.003620567049 0.0027382278352 0.0032804301766 0.0041406667421 
0.0030146326911 0.0029148295342 0.0038089040005 0.005021543107 0.0039948534616 0.00049637137006 0.003421467958 0.0024620940334 0.0030463584601 
0.0034036552934 0.0039043792538 0.004703013696 0.0050496985223 0.0046763249143 0.004899386029 0.0052923146857 0.0066904737334 0.0069822417856 
0.0071301260098 0.0050695874052 0.0044648180746 0.0063988378783 0.0052849266644 0.0045282150766 0.0032371164476 0.0069389488092 0.0071108403172 
0.0060155763506 0.0059783031977 0.0070230760276 0.0039876654283 0.0041332413667 0.0037251855686 0.0032785591715 0.0038476476502 0.0029556234208 
0.0044913379525 0.0038970562298 0.004258572476 0.0042958755356 0.0042643218781 0.0043759650706 0.004381593233 0.0043111146778 0.005854649917 
0.0035724019281 0.0055589358559 0.0064680506664 0.0029011203189 0.0059087474258 0.002460028789 0.0041443023744 0.0036306580164 0.0019531533676 
0.0022346319618 0.0028466805513 0.002916213483 0.0036966681335 0.0033778775807 0.0067126674678 0.0071394660742 0.0031603752335 0.0029359467097 
0.0025653323046 0.0041790115767 0.0043873133166 0.0040642254432 0.00261718855 0.0027508483129 0.0033573249803 0.0019237727858 0.0023286680862 
0.005276973563 0.0073313839891 0.0059717507904 0.0038136205333 0.0038810319105 0.0035189254618 0.0049707241036 0.004750862226 0.0045144530997 
0.006400798534 0.0057647524103 0.0081702803893 0.0083732149532 0.010109606213 0.0090581521359 0.0097572457574 0.0089554375138 0.017394796254 
0.0096629591586 0.0088432127156 0.009453647569 0.0091527416305 0.0096221184447 0.018781130822 0.014431591561 0.010410137947 0.0073340186648 
0.016036509241 0.016731598561 0.0097643523749 0.008539262684 0.014524833368 0.01550276049 0.0090010002428 0.0081624705866 0.0087673991374 
0.0081084518428 0.011056215315 0.011071181419 0.011021736048 0.010437925474 0.016648918083 0.0087153947684 0.0074427149862 0.0066664243228 
0.0046048807241 0.0045815192322 0.0050237666513 0.0064419130204 0.0057300018243 0.0045554897995 0.005858677555 0.0058738015414 0.0072509776371 
0.0021442413783 0.0019123054007 0.002303295953 0.0018679900332 0.0017140337556 0.0016470004225 0.0013977793298 0.0018431469672 0.0012879002631 
0.0017874308413 0.0014989420532 0.0013652003179 0.0014101982643 0.0013537935026 0.0039715238828 0.003872157439 0.0020114858508 0.0022692123465 
0.0019894781429 0.0016533960919 0.0021017376466 0.0043956540024 0.0019844676929 0.0018314023303 0.0032693267203 0.0030844276665 0.0031726648348 
0.0042541123295 0.005533755781 0.0069851696091 0.0067333463097 0.0096335524404 0.014531573759 0.0092101195279 0.0091996056718 0.0041525310878 
0.0041746714266 0.0081688988656 0.0077729112167 0.0132709316 0.0068832657108 0.0050849930678 0.0083052221426 0.017259983465 0.0076923961955 
0.013439764687 0.009292530864 0.010979709887 0.0083244251792 0.0071611648717 0.0094605151947 0.016953158082 0.017373880392 0.0074674388902 
0.0081389967981 0.0079388493717 0.0096225705417 0.0071091314895 0.0046895488684 0.0068176389728 0.020948905681 0.02269232128 0.021001032534 
0.018144915124 0.012566394005 0.011209766693 0.010808573722 0.0084001922507 0.0090443384991 0.0067301422763 0.0059756984546 0.0036541050845 
0.0046401901818 0.0060514287163 0.0027710109044 0.0030046111387 0.0023622927381 0.0023845485281 0.0016933798145 0.0018585849145 0.0024089338889 
0.0014432661964 0.003458436818 0.0021634944895 0.0021775989479 0.0021595079251 0.002411381107 0.0030547739542 0.0036718289905 0.0034764123844 
0.0039944636991 0.0020460410323 0.0018163022143 0.003279091553 0.0040269636968 0.0028987619995 0.0037143435642 0.0036906189312 0.0089525837082 
0.0070494323381 0.00603991258 0.0046892079498 0.0039364161376 0.021500621213 0.038198555625 0.021447631918 0.026736516901 0.019783927437 
0.037235787833 0.012782732118 0.012919666637 0.011123159397 0.015563837092 0.017956706785 0.0041622351642 0.0074144987802 0.0027611554037 
0.0013861003818 0.0016582671373 0.0017733257462 0.0015065827252 0.0019023191598 0.0029998854096 0.0035630027556 0.020304058731 0.0020467147679 
0.0029796271519 0.0025841744095 0.0020346371208 0.0022208943215 0.0022666534732 0.0021734638185 0.0022666412591 0.0040124286614 0.0071267497535 
0.0081554828618 0.0080635400224 0.0027387722926 0.0024994536639 0.0024336915839 0.0020290467419 0.0028862454126 0.0023692715627 0.0021091064568 
0.0021132396528 0.0047847659078 0.0094625061908 0.0068291406229 0.0074446366376 0.0051892463279 0.0048936391077 0.0031866262729 0.0051127915362 
0.0040345947522 0.0021037069715 0.0017153886594 0.0017062599767 0.0019624089596 0.0040526860491 0.0038835836202 0.0023295112089 0.0024891986108 
0.0017475922085 0.0017871659816 0.0012559825214 0.00068822874075 0.0012750060831 0.0015376615873 0.0013806731204 0.0014752848573 0.0017449297312 
0.002128952719 0.0018929107555 0.0018063799939 0.0020465747332 0.0021839829452 0.0021907279849 0.0022180125542 0.0037279458166 0.00173482039 
0.002002236914 0.0018566735829 0.0014208797804 0.001752011465 0.001600027022 0.0015954409473 0.0018186535187 0.0018257692091 0.0016820432102 
0.0017642980043 0.0023997214375 0.0029730970618 0.0062419135848 0.0050848268912 0.0018888460501 0.0037507336978 0.010866413043 0.0047716323841 
0.0056291897159 0.0037846552919 0.0030652634646 0.002222151519 0.0022523627534 0.0019086989664 0.0018024060179 0.0021885898679 0.0023661515681 
0.0019487036558 0.0019011272601 0.0018510656321 0.0018208117529 0.0018487951224 0.0017050376411 0.002600198584 0.0025093823153 0.0024748916546 
0.002498271911 0.0021826593655 0.0021020255655 0.0026422265063 0.0029464640355 0.0046115618582 0.0017794943876 0.0016564209415 0.0018804241254 
0.001786794715 0.0011413751337 0.0012851861076 0.0012735488821 0.0012908612755 0.0016061266156 0.0013979501786 0.0012508355916 0.0012533674043 
0.0017539496289 0.0023186659809 0.0025033686399 0.001475913017 0.0017752091517 0.0022056233349 0.0015863925029 0.0026732428248 0.0015456298266 
0.0014297863023 0.0010915476765 0.00083757075401 0.0022952347612 0.0027506597975 0.0012370535079 0.001792042225 0.0019570454201 0.001575711265 
0.0020331608228 0.0024226679367 0.0027608929652 0.0025641959097 0.0028464598698 0.0027127609306 0.0038957597122 0.0032957294943 0.0051241038494 
0.0028245613811 0.0063176106551 0.0066153099825 0.0089430227018 0.0092307257931 0.0090965121974 0.0087673939281 0.0055222652708 0.0067758914601 
0.0061465866419 0.0063386364033 0.0085650919352 0.0092753462782 0.0050184946623 0.0045452943475 0.0043597249022 0.0050472094517 0.0050151455981 
0.0062636552774 0.0037337540327 0.0042258730254 0.006513626643 0.0036435365384 0.0051912199544 0.0058028944292 0.0045353023059 0.0028075000236 
0.0026225197882 0.0039675148071 0.0042965931393 0.0031252739353 0.0037220161939 0.0027544510783 0.0031198072609 0.0039415622027 0.0039779002404 
0.0041966577064 0.005680967879 0.005166813154 0.0029633171406 0.0070283669429 0.0079920942941 0.0050962966625 0.0042331338308 0.004591652383 
0.0032123548011 0.0058362673922 0.00440170715 0.0020826287923 0.0015859532152 0.0022389503492 0.0069141766836 0.0069744644559 0.008470256454 
0.0062046101029 0.0051858068915 0.0074724087896 0.0076012453188 0.0069993975104 0.0088214896221 0.0094607031609 0.011456241187 0.0084239842799 
0.0071250874379 0.0077148565246 0.0070580064914 0.010153439042 0.0091443234009 0.009536919558 0.010789976132 0.0075204690534 0.0075225728106 
0.0087965184891 0.0085884914378 0.0085791974726 0.0097329739917 0.0093596405559 0.014241459787 0.010157572398 0.010644500158 0.0092983123767 
0.0083606089863 0.0083767502138 0.0082122745899 0.015297593432 0.0059521854648 0.0049709707487 0.018832533832 0.0085958731879 0.0073685943862 
0.0067728608965 0.0042291474682 0.0081415808156 0.022594628299 0.033829259903 0.019936442802 0.0077813486109 0.017141211791 0.018350361538 
0.00182567908 0.0055531745134 0.023129759811 0.0082733093578 0.0073087226703 0.0071269502135 0.0068081945876 0.0080876166802 0.0070558891809 
0.019198462223 0.019988380826 0.0074896613136 0.0077238382021 0.0051430787397 0.0076171461924 0.0059440841982 0.010554593318 0.008536797353 
0.0085374383537 0.01710216109 0.0085719293267 0.0087313940456 0.0087038673593 0.017686557377 0.017986385635 0.029806489854 0.018608729903 
0.0099156835763 0.0091239663891 0.0087736949694 0.0088812020556 0.0094909671681 0.0087220393613 0.012603616121 0.01450564308 0.014764148063 
0.023570292388 0.0086848419463 0.0077360709677 0.010936490931 0.0073316644514 0.0027809304069 0.0015809005506 0.002770017426 0.0025146944343 
0.0016963092963 0.0022358298425 0.002349750082 0.0018942815474 0.0014706400903 0.0017013711995 0.0018897275725 0.0019076561251 0.002046287851 
0.0019998281194 0.010948519641 0.0099721514796 0.011221454708 0.010479286176 0.0088790528433 0.0040990276916 0.0025307889927 0.0027927068801 
0.0050840960385 0.0056246887664 0.0095293768356 0.020571999855 0.0068676091492 0.010445345752 0.0060712857528 0.0051703290644 0.0053276505156 
0.0040862138849 0.0046427002074 0.0068023662427 0.0079401355889 0.0077016109116 0.0032854745003 0.003540549378 0.0035464449799 0.0028237331336 
0.0027999166189 0.0030950953116 0.0093859751872 0.010196600816 0.0032945150823 0.0046791580928 0.004382756758 0.0051983084892 0.0044967223728 
0.0029134913096 0.0042148806396 0.0051895132015 0.0051915232292 0.0026359298883 0.0067982892357 0.0041801189519 0.0055315843164 0.0033276184801 
0.0023974188746 0.0027958820572 0.0018948250762 0.0022609925275 0.0024509198642 0.0018700835241 0.0035379861677 0.0036404487848 0.0032934485072 
0.0021643890605 0.0030151644658 0.0041023304539 0.0044122251599 0.0064146249207 0.005637489853 0.0078588808695 0.011079948172 0.0063399771432 
0.010689035547 0.0035231404968 0.0098073347486 0.026218637909 0.0056324299 0.0073312681035 0.0081127550791 0.018763926606 0.017777299272 
0.016103418915 0.016718263274 0.0083549055058 0.025442409069 0.0086305382871 0.0088405916361 0.010054625696 0.0089637626915 0.017719060831 
0.017204840217 0.01598999027 0.016782224032 0.0083702115 0.0094123654926 0.0093714241228 0.019475240729 0.014349658348 0.0053110682185 
0.0059287117206 0.0093293980623 0.0079753767559 0.0074557109514 0.0091993865225 0.010342193919 0.0097940228019 0.0089347679047 0.010000671136 
0.020805338825 0.011452117397 0.0056149564989 0.0080679525331 0.016316095382 0.009736785678 0.01266824348 0.007082201915 0.0061316640602 
0.0089117987195 0.0079967759928 0.0078567290681 0.007365587847 0.0046335983265 0.0015850223185 0.0016294522619 0.0012574014847 0.001231527828 
0.00096149474774 0.0011111506173 0.000533726327 0.0007339192616 0.00028369837707 0.00064921835624 0.0027537760492 0.0046026838517 0.0057634422078 
0.0026352369205 0.0019849545561 0.002071126137 0.0069933962546 0.0056507874864 0.003277121134 0.0038534142389 0.0049581881058 0.005416101312 
0.0067419882327 0.0076675256545 0.0061655397872 0.0045245340008 0.0042160688486 0.0045457734487 0.006159860513 0.0060036075582 0.0084316406565 
0.0090097476068 0.0077974734915 0.0059247918287 0.0080494526008 0.0065536206528 0.0065364934226 0.0063626427859 0.0076962711088 0.0086136909538 
0.0066088409507 0.0070339546617 0.0043524783739 0.0027314159879 0.0027440540278 0.0029552353328 0.0022009837915 0.0024421348612 0.0019322171916 
0.0019443831473 0.0026269370269 0.0020382759978 0.0024532268503 0.0029272214726 0.0022729022271 0.0023559976681 0.0024195911401 0.0020731694088 
0.0031016896425 0.002350901162 0.0021522466147 0.0020662258082 0.002445573425 0.0026947093804 0.0032026635462 0.0044645210357 0.0049392817048 
0.0023546351753 0.0025091803606 0.0027170934658 0.0024874878436 0.0027422976683 0.0031920781083 0.0041372556329 0.0020957814514 0.002018220489 
0.0017912386449 0.0019598887305 0.0019449652174 0.0019114386131 0.0016554342131 0.0017996737651 0.0028370925896 0.0021725521792 0.0020982870182 
0.0017839496966 0.0023735108334 0.0024586566886 0.0026044136091 0.002218588345 0.002228282015 0.0028409121885 0.0023086900724 0.002710978955 
0.0026580436388 0.0027621991403 0.0063348286599 0.010061392614 0.0058826416683 0.0031517517164 0.0081466169315 0.01329030755 0.0080593901616 
0.0078431776478 0.0043869574051 0.008899906103 0.0072064966229 0.0046144658952 0.0076785919489 0.0064675172815 0.0040965057325 0.0038561922684 
0.0031588441114 0.0028307208114 0.0037251833816 0.0017500282194 0.0012451253141 0.0010475648473 0.0010708254555 0.0011100931891 0.0018371011813 
0.0019067353987 0.0015917035287 0.0016430230822 0.002121163101 0.0019172716253 0.0019609492811 0.0017258141442 0.0018776369848 0.0023504620238 
0.002324766472 0.0032622847767 0.0082335136223 0.015508198031 0.0035457379248 0.0081466648177 0.0090450887574 0.011539099589 0.010012356163 
0.0033813854894 0.0023163473171 0.0027373363415 0.0070602491332 0.0045371453291 0.0037829756876 0.0074437450705 0.0093512117128 0.0072634457104 
0.0097141139131 0.0070809758994 0.0090141334188 0.01181338244 0.016017021852 0.016316507651 0.011494245939 0.010274516356 0.01106464164 
0.015834997588 0.014627305835 0.013516817876 0.014594193549 0.010079196307 0.0054563551411 0.0049568824202 0.017423742616 0.016704940463 
0.0096568954764 0.009600418318 0.0094297018315 0.0082362112591 0.018125899724 0.010585083827 0.0068469056446 0.01325182173 0.0064153936801 
0.0077272875752 0.0082240743071 0.0085765979161 0.0097672531972 0.016581635586 0.037210525032 0.01867436087 0.0094351395864 0.0097644383755 
0.0098984915488 0.0093565433031 0.009421782774 0.0084809527405 0.0091479386746 0.017170089064 0.018399683508 0.0099723124359 0.0097871558846 
0.0091063343945 0.0093851609204 0.01197329566 0.010543318863 0.038320372068 0.0103149487 0.0091956907319 0.026851783364 0.016189264212 
0.0081256248269 0.0048550445283 0.011421598893 0.0098854704826 0.011518869137 0.011623155689 0.0079373758375 0.0094262884023 0.0050626894478 
0.0062175125755 0.0087602536628 0.0080684180176 0.012851936442 0.014738338625 0.0071911525807 0.0066223535311 0.0062833997087 0.0059041304666 
0.005753981741 0.0037996415683 0.0060045588424 0.0046279821501 0.0042669799817 0.0020448655096 0.0018250453542 0.0016289440768 0.0019460290751 
0.0020222097873 0.0013803939165 0.001019241724 0.0012948814837 0.0014167211855 0.0019436311416 0.0021332945377 0.0024482154413 0.0020905889406 
0.0029430639436 0.0025504310388 0.0041447455342 0.0079548180198 0.0056197904783 0.0046072321058 0.0065208553527 0.011842819077 0.012732036782 
0.012347544074 0.0027738290843 0.0024329367455 0.0022874730502 0.0031500095394 0.0068960006638 0.0082352253909 0.0032487237549 0.00255593173 
0.0031882128479 0.0056324658909 0.0049331456455 0.0033204328927 0.010223811557 0.0098591926375 0.010312665984 0.010816482365 0.0081436516542 
0.017478875525 0.018483220256 0.0164577063 0.024947792587 0.017168448624 0.018740178935 0.01923426253 0.017734485311 0.017864025805 
0.017641864807 0.026630576168 0.0088098426304 0.0087267563945 0.0088641518854 0.0087546611981 0.0088618539917 0.0087902750664 0.0087092000896 
0.0087532790715 0.0087284168951 0.008751879484 0.0087309683433 0.0085120530725 0.0075975155245 0.0081687593293 0.0085751999157 0.0073412055243 
0.0063973112672 0.0099148414742 0.01092584211 0.008634963262 0.0111242246 0.007460407184 0.0080936461932 0.0084425522427 0.008734371481 
0.0062275132483 0.0082574086814 0.0076360611273 0.007672886543 0.0096010710785 0.010986280435 0.011052809089 0.0097483885224 0.0083042773269 
0.0083020909584 0.0077920126995 0.015903478185 0.020798641518 0.012027580414 0.029669126358 0.016516148846 0.028732228138 0.019888639235 
0.010841050258 0.014805013525 0.024893189973 0.017083332485 0.030888574193 0.039193150468 0.042727126648 0.013972382102 0.022226612152 
0.021389969793 0.011062631126 0.0073063673058 0.0063112932461 0.010297483029 0.010724240104 0.0072795628335 0.017589061004 0.0076423084767 
0.0091253692985 0.010700904832 0.0072872549888 0.0056197575033 0.007233320358 0.0067680734516 0.0091421084359 0.01171876935 0.0095563493343 
0.016183282624 0.013672527352 0.026054402323 0.031953171629 0.032549789462 0.016131605216 0.0084516738373 0.028313485852 0.018491299742 
0.020936291004 0.030765936404 0.049050453097 0.02415312664 0.022254479784 0.023770287146 0.0252953682 0.022390735764 0.018833623036 
0.021485337067 0.013389440548 0.024351697904 0.030572805606 0.023644094494 0.013037313361 0.021037777674 0.029251834641 0.02013308858 
0.010829567685 0.020720452296 0.018702301535 0.021885018393 0.040783597888 0.021573374489 0.0096658384257 0.0085462716156 0.0071508369872 
0.0083240622082 0.0098698653762 0.0098650479886 0.019766906185 0.019307491344 0.010160413974 0.009667660334 0.0085936472758 0.0084985259205 
0.0094682148024 0.0093247943596 0.0089024563941 0.026859851558 0.036550025293 0.017620546113 0.02293172222 0.0096545846317 0.010623064656 
0.0088730010604 0.0092116036633 0.018355421587 0.018132311772 0.0099196405313 0.0099185835299 0.014610550767 0.025031619469 0.034203035718 
0.020827089979 0.020615008056 0.011303318162 0.022112382415 0.015602284869 0.014038213826 0.015383293355 0.01159288946 0.026081689648 
0.028465362388 0.022209566293 0.011827429709 0.034327114936 0.01141531497 0.0085539149825 0.017121605174 0.013344612277 0.010092493405 
0.010720153249 0.0093624117109 0.0094116263891 0.0080885624023 0.0079235245586 0.0078402081 0.0071123198913 0.007670056963 0.0063190706911 
0.0054105719986 0.005506620438 0.0046436657289 0.0041123372472 0.0034029218281 0.0028650631752 0.0026217725687 0.0034157742268 0.0031367183234 
0.0031216204129 0.0044564635976 0.012658615417 0.005749677831 0.0083770384232 0.036803990626 0.02715351826 0.012771905085 0.013579412147 
0.01453620329 0.026149076139 0.017341157117 0.016007150775 0.0084715536078 0.025926508201 0.010568511422 0.01900523924 0.046396166624 
0.023350341549 0.011514061773 0.032245130101 0.015047960236 0.012524590964 0.014550602667 0.035665019642 0.014356307488 0.009395613019 
0.010397573908 0.033789757945 0.016125909467 0.0090101407902 0.020268311093 0.015981895428 0.0088239469938 0.038482918737 0.021701271786 
0.014801200987 0.008727879387 0.017491372809 0.011661672002 0.011163938243 0.028048192792 0.022132457444 0.0050953415977 0.010950229782 
0.043119041458 0.027557663154 0.0092068248601 0.0092278506308 0.0093139218857 0.0087303023268 0.009441685102 0.010989175032 0.0094818677958 
0.0090792513543 0.0092989439564 0.0085298627934 0.0077252897217 0.0081373633081 0.0076315524935 0.010012129751 0.010143736185 0.012372911285 
0.0091166068902 0.0090513682649 0.0093108938349 0.0096050527501 0.0099318327303 0.0098305097136 0.010218185914 0.0092693696481 0.0095283288566 
0.0099198588381 0.010515519924 0.010303333721 0.0096736718572 0.0094278928499 0.018683292081 0.038209998147 0.019845096398 0.019284733267 
0.018241293337 0.0091074240919 0.0092812893003 0.009224756319 0.0090757666123 0.010346759051 0.01077426087 0.0098139732376 0.0096724301989 
0.0095866844907 0.0093640757997 0.0095661897113 0.010115934382 0.0074308549117 0.0069507298243 0.007401412758 0.0023737164023 0.0012104040264 
0.0015477440724 0.001760886522 0.0032179199911 0.0057138174218 0.0067690963852 0.0035017589706 0.0032727940716 0.0025863238206 0.0018247354862 
0.002291849243 0.0027230895492 0.0026722606379 0.0040843951198 0.0030023156273 0.0023156259465 0.0026406071863 0.0030806061499 0.0056837646297 
0.015486608176 0.011149469285 0.017511507301 0.024572112917 0.007963107589 0.019682596754 0.013228751865 0.022283911034 0.019823053024 
0.0351657317 0.020186671728 0.029003362458 0.014829214708 0.00809536406 0.0067666855157 0.0095917476147 0.021054904965 0.010166765112 
0.012277509399 0.010807241799 0.020953905944 0.021409761858 0.010454036815 0.0088201808874 0.019576942041 0.013515435631 0.0050117933361 
0.018133983244 0.011132307532 0.027873380071 0.010627265063 0.011434571981 0.0098375949703 0.010216292046 0.012442436597 0.011788528814 