# vtk DataFile Version 4.2
vtk output
ASCII
DATASET POLYDATA
POINTS 18806 float
15.7125 -15.4688 1.21475 15.7292 -15.4588 0.833816 15.8474 -15.5055 1.02827 
15.5928 -15.4119 0.919086 15.365 -15.3319 1.09626 15.4799 -15.3637 0.845126 
15.0914 -15.2195 1.20089 14.9715 -15.1565 1.04087 15.1056 -15.211 0.958946 
15.2213 -15.2761 1.16542 15.4799 -15.3889 1.40327 15.2346 -15.2926 1.43117 
15.4717 -15.3935 1.54076 15.3545 -15.3737 1.90322 15.4811 -15.4172 1.80607 
15.3545 -15.384 2.0282 15.5063 -15.4441 2.06766 15.7451 -15.5268 2.05472 
15.6054 -15.4882 2.15355 15.3545 -15.4003 2.16806 15.5935 -15.5077 2.29479 
15.3551 -15.4268 2.30675 15.2294 -15.38 2.31605 15.2029 -15.3393 2.18144 
15.1392 -15.2941 2.06088 15.0912 -15.2915 2.18118 15.1136 -15.3298 2.30829 
14.9802 -15.2766 2.31005 14.857 -15.1874 2.18256 14.9928 -15.2263 2.07186 
14.7306 -15.0955 2.0286 15.093 -15.2594 1.91941 15.1044 -15.2511 1.6532 
14.9792 -15.195 1.68084 14.9846 -15.1843 1.45757 14.8545 -15.1189 1.4032 
15.253 -15.2814 1.02234 15.2297 -15.263 0.903256 15.8547 -15.5011 0.903246 
16.1049 -15.5652 0.806066 16.3554 -15.6555 1.18105 16.2299 -15.6249 1.19909 
16.3437 -15.6435 1.04412 16.4804 -15.6817 1.0561 16.5103 -15.7066 1.31845 
16.5942 -15.7235 1.20299 16.7243 -15.7522 1.16271 16.4802 -15.7162 1.58379 
16.3549 -15.6839 1.55601 16.3549 -15.6989 1.80602 16.4669 -15.727 1.82592 
16.7299 -15.7777 1.55604 16.7299 -15.8026 1.93103 16.3659 -15.7167 2.06014 
16.2299 -15.6812 2.05616 16.2621 -15.702 2.19197 16.6051 -15.793 2.18116 
16.3554 -15.7392 2.27859 16.1054 -15.6718 2.30649 16.1068 -15.6575 2.18199 
15.9801 -15.6356 2.31072 15.9816 -15.6188 2.18626 16.1152 -15.6491 2.0584 
15.9682 -15.5929 1.952 15.9732 -15.5868 1.83579 16.2224 -15.6641 1.80607 
16.0075 -15.5772 1.44347 16.247 -15.6466 1.42819 15.9795 -15.5627 1.30609 
16.1117 -15.5847 1.0613 16.4797 -15.6769 0.931056 16.2301 -15.6107 0.976996 
15.8542 -15.5227 1.27819 15.6089 -15.4479 1.58265 15.8589 -15.5345 1.55614 
15.7304 -15.5008 1.77827 15.8656 -15.5779 2.17765 15.8542 -15.5935 2.30922 
15.7306 -15.5537 2.30685 15.7304 -15.5842 2.43183 15.6052 -15.5461 2.43169 
15.4797 -15.5062 2.43152 15.4795 -15.5464 2.5563 15.6054 -15.5847 2.55688 
15.4797 -15.5903 2.68104 15.3547 -15.5462 2.68102 15.3547 -15.5016 2.5563 
15.2306 -15.498 2.68174 15.1049 -15.4072 2.56242 15.2327 -15.4142 2.43254 
15.1056 -15.3625 2.43182 14.9827 -15.3143 2.43292 14.9778 -15.3553 2.56043 
14.8556 -15.3521 2.68216 14.7304 -15.249 2.55681 14.7308 -15.2038 2.43194 
14.6052 -15.1919 2.55718 14.6042 -15.246 2.6811 14.4797 -15.1867 2.68173 
14.4787 -15.2427 2.80469 14.3566 -15.1806 2.80566 14.3549 -15.0674 2.55683 
14.6047 -15.1502 2.44401 14.4701 -15.0454 2.33364 14.6192 -15.0846 2.2113 
14.4391 -14.9574 2.10285 14.6031 -15.0417 2.0663 14.6108 -15.0214 1.93472 
14.8302 -15.1316 1.9298 14.6327 -15.0176 1.80576 14.7169 -15.0566 1.5678 
14.7287 -15.057 1.4306 14.6035 -14.9754 1.20883 14.7514 -15.053 1.17112 
16.7292 -15.7279 0.815056 14.4785 -14.8973 1.18146 14.6044 -14.9657 0.958736 
14.7287 -15.0345 0.903296 14.874 -15.1131 1.16449 14.4792 -14.8866 0.806496 
14.3533 -14.8114 1.15333 14.2323 -14.7209 1.20917 14.2337 -14.7194 0.833746 
13.7225 -14.1217 1.05643 13.7371 -14.1233 0.681936 13.8006 -14.2184 0.805916 
13.865 -14.3147 1.02786 13.9802 -14.448 0.931016 14.038 -14.5207 0.778636 
14.0721 -14.5615 0.959106 14.0639 -14.5612 1.10141 14.1607 -14.6555 1.02793 
14.1206 -14.6253 1.2704 14.0228 -14.5303 1.30094 14.0361 -14.5253 1.02776 
13.9802 -14.4863 1.30602 13.9802 -14.4876 1.43102 14.0751 -14.5828 1.37541 
14.1198 -14.6323 1.60532 13.9802 -14.4948 1.58585 13.8836 -14.3737 1.53287 
13.8978 -14.3809 1.38121 13.7005 -14.091 1.39245 13.7175 -14.1223 1.18135 
13.6382 -13.9957 1.18117 13.5559 -13.8688 1.30814 13.6332 -13.9935 1.43153 
13.6756 -14.0783 1.53241 13.6136 -13.9919 1.55792 13.656 -14.1087 1.66686 
13.7288 -14.1781 1.59704 13.8414 -14.3596 1.68021 13.6089 -14.1133 1.78462 
13.6467 -14.2631 1.94255 13.5539 -14.1321 1.92275 13.5112 -14.0005 1.80736 
13.5686 -13.9926 1.68385 13.4867 -13.8712 1.68161 13.5266 -13.8728 1.56315 
13.5518 -13.8774 1.43531 13.4713 -13.7462 1.43783 13.451 -13.7482 1.55762 
13.4114 -13.6276 1.43095 13.4181 -13.6222 1.30911 13.4836 -13.7474 1.30489 
13.4293 -13.625 1.18516 13.4902 -13.747 1.18771 13.4412 -13.6216 1.05612 
13.3925 -13.4965 1.05609 13.3843 -13.5039 1.18142 13.3591 -13.3711 1.05292 
14.0749 -14.5601 0.708456 14.1607 -14.6535 0.778086 13.4042 -13.4964 0.931246 
13.5009 -13.7467 1.05642 13.5678 -13.8722 1.05657 13.5615 -13.8718 1.18158 
13.6434 -13.9953 1.05625 13.3334 -13.2456 0.931066 13.3652 -13.3705 0.931036 
13.5128 -13.7457 0.931576 13.5882 -13.8715 0.680866 24.1383 -9.86819 1.18039 
24.0693 -9.74337 1.05539 24.0832 -9.74318 1.18032 13.8897 -14.3651 1.24983 
13.8146 -14.2527 1.07594 24.0203 -9.61706 1.18001 24.0052 -9.61761 1.05518 
23.924 -9.48126 1.06742 23.9749 -9.49255 1.43007 23.9101 -9.41348 1.32644 
24.2772 -10.2436 1.30543 24.2785 -10.3695 1.05586 24.2507 -10.2317 1.06737 
24.3323 -10.6321 1.16928 24.3183 -10.6035 1.03948 24.3089 -10.495 1.18117 
24.0593 -9.61868 1.55549 24.015 -9.47731 1.7891 23.9367 -9.368 1.70848 
23.8592 -9.30453 1.49354 23.8696 -9.24283 1.80624 23.9578 -9.36818 1.83358 
23.8945 -9.24363 1.93157 23.8023 -9.11848 1.93156 23.7748 -9.11811 1.80641 
23.6989 -8.99318 1.93163 23.7675 -8.98694 2.18179 23.6619 -8.86901 2.18175 
23.5407 -8.74329 2.18203 23.6692 -8.99345 1.80651 23.4619 -8.74312 1.93157 
23.3416 -8.52173 2.28624 23.3127 -8.5394 2.16009 23.2302 -8.42497 2.30602 
23.3519 -8.41928 2.56313 23.2302 -8.32693 2.55602 23.3539 -8.36726 2.68252 
23.1005 -8.17554 2.67904 22.9699 -8.12451 2.56752 22.9175 -8.04236 2.6567 
23.1013 -8.11394 2.81522 23.3389 -8.30136 2.80601 23.2302 -8.10672 3.05602 
23.4835 -8.37235 2.91626 23.4564 -8.40769 2.77894 23.4835 -8.47943 2.66794 
23.568 -8.49351 2.80283 23.6414 -8.61673 2.68016 23.5791 -8.61722 2.55555 
23.4452 -8.50899 2.5382 23.4584 -8.61892 2.30679 23.6484 -8.74153 2.43083 
23.7073 -8.74219 2.55546 23.7662 -8.86802 2.43092 23.9171 -9.11653 2.30362 
23.8724 -8.99319 2.43087 23.9688 -9.1184 2.43101 23.9251 -8.99255 2.55559 
23.8214 -8.86798 2.55554 23.8126 -8.73985 2.8082 23.921 -8.86622 2.80316 
23.8639 -8.74295 2.9306 23.9695 -8.86712 2.93046 23.955 -8.74246 3.1808 
24.0525 -8.86902 3.18106 23.9988 -8.74202 3.30564 24.094 -8.86825 3.3058 
24.1016 -8.81344 3.45798 23.9779 -8.61667 3.55564 24.0142 -8.61284 3.68052 
23.9083 -8.49312 3.68052 23.8132 -8.49057 3.42657 23.8915 -8.61795 3.30603 
23.7358 -8.5043 3.17081 23.8462 -8.61773 3.18063 23.6215 -8.4901 2.92952 
23.6089 -8.37788 3.17319 23.6972 -8.61748 2.8056 23.4694 -8.25496 3.1772 
23.4931 -8.13769 3.5372 23.3356 -8.00852 3.51841 23.5408 -8.14274 3.64588 
23.3477 -7.95426 3.68284 23.44 -7.98503 3.80696 23.5763 -8.11668 3.80137 
23.636 -8.10845 3.95535 23.551 -7.97208 4.06946 23.6402 -8.03812 4.12397 
23.7007 -8.12374 4.05804 23.6971 -8.07628 4.20098 23.5719 -7.94247 4.23108 
23.6164 -7.98395 4.31253 23.5455 -7.92625 4.35704 23.6079 -7.99277 4.37662 
23.6607 -8.04434 4.3499 23.7329 -8.11248 4.27054 23.7195 -8.12244 4.364 
23.7833 -8.17413 4.30145 23.7665 -8.15555 4.19312 23.8116 -8.21008 4.23754 
23.7835 -8.18997 4.12428 23.7646 -8.23849 3.94169 23.8424 -8.27936 4.04525 
23.851 -8.25616 4.18082 23.9408 -8.37305 4.15819 23.8715 -8.29024 4.29829 
23.9485 -8.3949 4.26717 23.9845 -8.4312 4.18645 23.9824 -8.4361 4.08828 
23.9173 -8.36738 4.03639 23.956 -8.43866 3.95798 23.88 -8.36261 3.93005 
23.9531 -8.49329 3.80578 23.8365 -8.3681 3.80558 23.6602 -8.24434 3.68185 
24.0476 -8.56989 3.89271 24.0399 -8.51563 4.03348 24.0994 -8.60978 3.96146 
24.1368 -8.71354 3.8169 24.1178 -8.74185 3.68075 24.1986 -8.86226 3.67946 
24.1677 -8.92085 3.43031 24.2432 -8.98066 3.5669 24.2582 -9.11851 3.30531 
24.3187 -9.11866 3.55509 24.3301 -9.24529 3.30591 24.3883 -9.24275 3.55494 
24.3971 -9.35091 3.3218 24.3785 -9.37927 3.19171 24.2968 -9.24439 3.18079 
24.329 -9.36943 3.0565 24.2604 -9.24325 3.05584 24.2217 -9.11915 3.18102 
24.1804 -8.99308 3.30553 24.1033 -8.99244 3.05541 24.1487 -9.11765 2.93029 
24.0208 -8.99307 2.80571 24.0646 -9.11746 2.68056 23.9746 -8.99236 2.6805 
24.018 -9.11767 2.55557 24.0986 -9.24349 2.556 24.0552 -9.24317 2.4306 
24.0085 -9.24239 2.3058 24.0852 -9.36844 2.30611 24.0403 -9.36975 2.18214 
23.9624 -9.24351 2.18207 23.9018 -9.16805 2.15703 23.9826 -9.36803 1.95853 
24.061 -9.46724 2.05661 24.0533 -9.50661 1.91916 24.1286 -9.59125 2.0558 
24.1305 -9.64631 1.931 24.0803 -9.591 1.80612 24.1401 -9.71683 1.80612 
24.1881 -9.77277 1.93145 24.2463 -9.84123 2.05608 24.2418 -9.89686 1.93089 
24.2969 -9.96709 2.05658 24.2893 -9.86954 2.1821 24.343 -9.99514 2.18256 
24.3303 -9.87047 2.30679 24.2625 -9.73246 2.29418 24.3137 -9.74526 2.43142 
24.2059 -9.52288 2.43111 24.2167 -9.46791 2.55683 24.141 -9.37828 2.44113 
24.2076 -9.37016 2.68198 24.2716 -9.49496 2.6813 24.2627 -9.38021 2.81675 
24.3901 -9.6465 2.8049 24.3999 -9.59168 2.9307 24.3939 -9.49316 3.05588 
24.4564 -9.71693 2.93111 24.5155 -9.77153 3.05514 24.524 -9.72696 3.16332 
24.5725 -9.84218 3.18079 24.5661 -9.77405 3.29332 24.5781 -9.73412 3.40853 
24.6416 -9.86848 3.43021 24.6691 -9.86191 3.54993 24.7121 -9.9909 3.53375 
24.718 -9.91011 3.70259 24.7545 -10.0356 3.66142 24.7494 -9.97971 3.80493 
24.7186 -9.88346 3.81351 24.7222 -9.93305 3.89424 24.6947 -9.8584 3.92424 
24.6733 -9.77469 3.86451 24.6818 -9.78653 3.76731 24.6397 -9.66774 3.79108 
24.6234 -9.65401 3.88431 24.5773 -9.55158 3.84157 24.5444 -9.53262 3.94273 
24.5974 -9.62576 3.9431 24.544 -9.63598 4.053 24.4823 -9.57239 4.09358 
24.478 -9.64285 4.12622 24.5361 -9.70937 4.09385 24.5988 -9.73231 4.03898 
24.5873 -9.79792 4.07797 24.5344 -9.79254 4.11476 24.6106 -9.93144 4.0814 
24.6411 -9.87716 4.04471 24.658 -9.98083 4.02983 24.6752 -9.92169 3.98259 
24.7012 -9.99961 3.97862 24.7442 -10.035 3.90513 24.7232 -10.0894 3.97418 
24.7555 -10.1207 3.92095 24.7357 -10.1753 3.97406 24.7675 -10.2357 3.92811 
[...]
CELL_DATA 37608
FIELD FieldData 1
Area 1 37608 double
0.02541400033 0.019810732054 0.017144892351 0.028083199056 0.035301462355 0.018057746088 0.053149451102 0.018638440819 0.0085633526072 
0.020738407202 0.033350159953 0.011616710577 0.012258900374 0.018973785381 0.017790573093 0.0094935276214 0.011495351313 0.011537001734 
0.015437062886 0.0073761398517 0.0078754237305 0.0093669187179 0.016928569699 0.014311633679 0.019591638036 0.02469002205 0.011767989171 
0.020733227527 0.037977439966 0.018171674264 0.015321433498 0.028522829284 0.01627016684 0.021741682421 0.01621707712 0.0096037058624 
0.01982683452 0.016923280069 0.0084785066411 0.0158824035 0.008997296229 0.0096481350354 0.018959137063 0.013267783051 0.0059752600892 
0.026992644677 0.01758763394 0.016166114721 0.014115653494 0.031039555711 0.051056353109 0.037386847449 0.016685130785 0.0095028379729 
0.022927817613 0.016048057826 0.012696781464 0.010114256618 0.0081768406873 0.008226582674 0.0081086221849 0.017368069423 0.0093042290456 
0.031414670392 0.014943867333 0.017160500563 0.050798468601 0.047061067777 0.028805546513 0.019386566028 0.02446530743 0.036053919186 
0.0088678516978 0.013609732603 0.016297394373 0.018591017886 0.031240799861 0.029382789858 0.03689760698 0.027659443315 0.032449399825 
0.027586171468 0.021948380404 0.0086072013131 0.022773426215 0.020953947221 0.028675163867 0.015074567931 0.033360121775 0.021053288747 
0.014380425249 0.0082022844299 0.0086248287168 0.019628603896 0.0083142170114 0.0083929937939 0.01004755424 0.0092763294083 0.0085997779315 
0.0085844056012 0.0086566932495 0.008710897256 0.0087236053649 0.0087567487472 0.017253509751 0.017729360371 0.017184714275 0.017011876226 
0.0093937702576 0.0082497982264 0.0080492534244 0.008447134892 0.0088270574276 0.0083479937101 0.0272977505 0.017538111506 0.01808143037 
0.0090471563371 0.0091855572371 0.0092047191818 0.0091858893562 0.0091138864507 0.018618055497 0.027363895911 0.024966203885 0.0090706161171 
0.026865019585 0.031878987936 0.022338223992 0.014286347965 0.010901184898 0.0092553963961 0.011962283677 0.015863855457 0.032880109683 
0.046108768549 0.02097136906 0.011400342338 0.021344929022 0.0074273340102 0.023249223092 0.018393581199 0.018385065607 0.011836718686 
0.016567147841 0.027384663064 0.028402744077 0.028351990803 0.022025742438 0.025152220861 0.01243669146 0.0094026031678 0.014571395996 
0.012840428896 0.0063775041333 0.0083545181179 0.0038273858557 0.0070670599996 0.017307720368 0.015125032393 0.011848028251 0.010591289037 
0.026547442947 0.036819171153 0.015768236824 0.023210825138 0.010183005733 0.0078542352984 0.0066119617649 0.0075493410104 0.0073273627674 
0.011916388439 0.017464837689 0.026130483575 0.03632795774 0.012120865017 0.010853471933 0.0095838770534 0.0088568975118 0.0098341524139 
0.009010724939 0.0096109254687 0.0094702638664 0.0099266480912 0.0088529515125 0.0080857869385 0.0081102966259 0.0094026807296 0.0087591259326 
0.0080109068959 0.0088482555244 0.0087029835645 0.0081139840652 0.008152857259 0.006731206041 0.012244897633 0.018198989275 0.0057416631926 
0.013147547938 0.0084128973464 0.0088976768913 0.0094373863518 0.0090754962066 0.0091183396507 0.0090269165484 0.0078635240273 0.026423631104 
0.0085780998443 0.0093264576338 0.018691667306 0.012608393303 0.010196982082 0.010006201125 0.015260687611 0.0094485465004 0.028239877979 
0.016579315252 0.016914158833 0.0092265726488 0.026556777178 0.027227371709 0.026955511628 0.017892127496 0.026817332051 0.020949579806 
0.020060892077 0.009513243256 0.0095269772282 0.0098634835624 0.0099502178119 0.010308082278 0.020841396244 0.020286036547 0.022433742719 
0.0210290856 0.045112607759 0.041103739894 0.017236172247 0.0097104798607 0.020804967456 0.020209750597 0.0097865727645 0.021000899644 
0.020261660097 0.011824331119 0.016815215507 0.021726714818 0.039086085054 0.03269077991 0.011409574798 0.0095615948361 0.009552059783 
0.0090624475103 0.014446814611 0.013458566987 0.01179663015 0.0090573377825 0.014664821254 0.032455326892 0.03555217252 0.012741066071 
0.011732245938 0.011386505196 0.022629578788 0.031212454832 0.011088815229 0.010543314819 0.01040157478 0.010642317472 0.021375892149 
0.021410598427 0.010733176842 0.010796030205 0.021179799706 0.020673108225 0.010356424303 0.010214060012 0.012428360728 0.024137252763 
0.01584539948 0.010263071978 0.022434110751 0.022489137419 0.022003596986 0.010094993096 0.019503145826 0.022622693611 0.023702491034 
0.011731907078 0.011831368194 0.025179305826 0.034726907815 0.038716466022 0.011023363942 0.022581908696 0.019248455006 0.015314517743 
0.015365156095 0.025812131143 0.011027197019 0.0075356031085 0.0063302813048 0.0081876541146 0.0083851726069 0.0050777346227 0.0029719788493 
0.0024146362084 0.004854845996 0.0046446928276 0.0037987716978 0.0039268214698 0.0038675324164 0.0032774799893 0.0032872252458 0.0049119865207 
0.010662737094 0.0090335205392 0.0068040583121 0.0099660336553 0.009111009096 0.0074385961467 0.0036649152887 0.003614609674 0.0052840732539 
0.0058512947751 0.0054531383129 0.0089815798359 0.011066815909 0.011119740605 0.012041933373 0.011066026389 0.022848239019 0.022764202026 
0.011154955157 0.0098971565172 0.0062205475313 0.0084064620443 0.011350386738 0.018085290342 0.010128866631 0.016582044407 0.015677751594 
0.013932956156 0.020941318045 0.020254067875 0.018598201862 0.018105384361 0.015664251319 0.0084702954494 0.010016010571 0.010880580928 
0.0092464822727 0.0093956407368 0.0093664312675 0.0094587805725 0.019297142709 0.019680684272 0.019364330135 0.019683475772 0.019605136026 
0.010059912406 0.01047017338 0.010066330089 0.010213038685 0.0097868354616 0.0097500665992 0.0099529003651 0.0099036284761 0.0096564029508 
0.0095902550907 0.0096398395395 0.010038378723 0.0077960268373 0.012581426955 0.018364629094 0.020147107803 0.010262769572 0.009862355429 
0.010446790581 0.0096377263214 0.0082398278362 0.0090831881149 0.0088291859636 0.0088058524171 0.0088053380097 0.0086353515912 0.0086715504037 
0.0087674954098 0.0088556199965 0.0088859867772 0.0098722518477 0.010791789194 0.017678345609 0.016092926223 0.010067508586 0.012860934357 
0.0091124079548 0.0099625651445 0.020303430858 0.036753403528 0.012077663092 0.0091697521103 0.0089543801456 0.019488037543 0.016872984584 
0.0072655499999 0.0077116004426 0.0056695364015 0.0091372913488 0.0090714777021 0.0083857930527 0.011082636411 0.0096679040006 0.0082791904282 
0.0055148001622 0.0043273452912 0.0039711984818 0.0057547514403 0.0053684443833 0.0059658923662 0.0059373102381 0.0056717670594 0.0064783142316 
0.0031911862097 0.0065098238543 0.0072911709744 0.0035015823448 0.0036495467139 0.0036100186214 0.0032681021394 0.0027621693525 0.0042820733512 
0.0035970465855 0.003082808092 0.0032177129096 0.0024958665497 0.0039540432238 0.0044576027433 0.0036439650134 0.0028560495893 0.0025974875201 
0.0032385551588 0.0033261723946 0.0039533865595 0.0046772771408 0.003286922921 0.0036169776928 0.0029760566756 0.0034110821168 0.0075724539789 
0.0041089607639 0.0045629037336 0.0053195693721 0.0051233094308 0.0033322260042 0.0031219022153 0.0036107434316 0.0038196298608 0.0037378673047 
0.0038406257268 0.0052579193804 0.0037049729436 0.006332207434 0.0080586866129 0.0083978092259 0.0056031797765 0.0075134153401 0.0074481840472 
0.0068795684128 0.0050665489382 0.004959373188 0.0038419019736 0.0035713395983 0.0053565217054 0.0062581893008 0.0051717444129 0.0048343748391 
0.0037573790606 0.0082736004416 0.0089119895658 0.0042274442255 0.0038505359271 0.0045780197013 0.0032806288186 0.012145100222 0.012123040001 
0.011412875907 0.0052602986639 0.016824462259 0.018838168306 0.0083539678994 0.010713713865 0.0085336803791 0.0084938759934 0.0085463127695 
0.0085549726666 0.0086237185362 0.0085909638676 0.0085839344081 0.017330026447 0.030537157323 0.01220336151 0.0082488716322 0.011697602312 
0.020862672114 0.01504641731 0.0071997862711 0.0082156534355 0.01049992767 0.0097252289977 0.010326931379 0.0098245739873 0.017850108031 
0.017875433298 0.01767988102 0.017590503525 0.030216035848 0.0098080161339 0.014223890671 0.016890261051 0.027464081164 0.015396944959 
0.0084451296275 0.016698709983 0.016643388585 0.034090289241 0.017195775766 0.013395840675 0.028206954212 0.019413225823 0.019371616972 
0.017781875782 0.013420588847 0.0093990545829 0.019879456221 0.019169577257 0.0081948683741 0.008201179084 0.0081709792786 0.0081836660965 
0.0087137031236 0.0078734573348 0.0084446111691 0.008503427236 0.008526692097 0.0088320959906 0.0083713580264 0.031327382989 0.011040029689 
0.0093413649304 0.010120607595 0.017921181423 0.03212407272 0.012686178646 0.0082510722423 0.013807940048 0.0079810973796 0.015943036782 
0.012793269239 0.007001379675 0.0081026428868 0.0081059635011 0.0082479733793 0.0082508494085 0.015719128912 0.016431835432 0.021021188173 
0.0087204119384 0.0083748584972 0.0098603624147 0.0092403265968 0.0098978320645 0.0096442261975 0.017147107051 0.0085089904823 0.0084720815366 
0.0083703869905 0.0092045803171 0.0084096081518 0.0077597453699 0.0097919962321 0.00828727538 0.0081701900678 0.0080813894699 0.016115847593 
0.015992494304 0.0072196613432 0.021776641056 0.01627169395 0.006342227867 0.0085910043447 0.0068816553471 0.0053766705365 0.0050455118648 
0.0031901516802 0.0032634277339 0.0037820200166 0.0030821654865 0.0018983000971 0.0023113210518 0.0037290455723 0.0031960160808 0.002585437547 
0.0024401683404 0.0039366753046 0.0031057684949 0.0025299524257 0.0038421647668 0.0032788338942 0.0032953325284 0.0021869236563 0.0029064706399 
0.0051239000946 0.0034649157068 0.0040571297919 0.0039252122018 0.0032160902173 0.0042638769752 0.004178387787 0.0034843730692 0.0027163979985 
0.0039080325518 0.0040642006692 0.0040442470025 0.0036177072087 0.003994852773 0.0047153933027 0.0047808365003 0.0069994698104 0.0046851261776 
0.0067904524312 0.0047559752744 0.0035868885197 0.010988541551 0.015503922578 0.015437554864 0.016942111807 0.016417198147 0.0080061529566 
0.0080022204831 0.0080604866389 0.0093758551942 0.008056969132 0.0081376547266 0.0082048794753 0.0083110609853 0.017963700335 0.0079277114915 
0.0083959794251 0.0098215939229 0.0091803916037 0.0096039463044 0.0083209034643 0.0082691786214 0.0082791644822 0.0081827638018 0.018139344617 
0.017920032819 0.0080495255122 0.0079617727696 0.0079765250897 0.0078857569463 0.01578712843 0.030982011347 0.024550093398 0.0095584850875 
0.0085694750104 0.013886790312 0.013758549213 0.01402977527 0.006366231358 0.0089141667433 0.0074239786521 0.0047116638723 0.0044427865481 
0.0041243192018 0.0041279824638 0.0061509748101 0.010789725003 0.0058263094358 0.0060214652766 0.011364602609 0.0055816295686 0.004693659813 
0.0059911928204 0.0063387476313 0.0081570734591 0.015899614759 0.0158614081 0.0062993441129 0.015748717833 0.031523330984 0.01412944267 
0.01571959147 0.0078797429367 0.0078784733342 0.0078958139644 0.0079430937315 0.007945569948 0.0080369155335 0.0080266560023 0.0081140912272 
0.0081419105452 0.0081001398915 0.0081970292672 0.0082199556546 0.0082741468338 0.0082712341036 0.0083090968109 0.0082802708111 0.0083080097157 
0.0082251053183 0.016184526508 0.017629324273 0.014706427804 0.017357421234 0.0093408233777 0.0093496756243 0.017555981086 0.0087724241687 
0.0079791402408 0.021500964494 0.01578608046 0.015848777319 0.018715363997 0.024300272573 0.029808330304 0.012203178769 0.01523177135 
0.015692302986 0.0086219158962 0.016161114741 0.025130485616 0.025350388661 0.0086582893142 0.0086700524907 0.0084550347405 0.008623697991 
0.0084259917443 0.0084711450828 0.0085052346898 0.0084882259881 0.0083737090636 0.008378081304 0.0084395958006 0.0084883466261 0.0084382586213 
0.0084870815152 0.007207190599 0.0077997525539 0.0077240151897 0.0070836809612 0.0034484468411 0.0039259313337 0.0030650266268 0.0032194744405 
0.0040020138847 0.0037258229538 0.0050930192969 0.0051433645693 0.0058145952566 0.0063552506918 0.0052182403086 0.0057123144799 0.0050880179834 
0.0039708356054 0.0051560112767 0.0076913224558 0.0090558001789 0.0077356664982 0.0097297762662 0.0098361531025 0.010011053187 0.0086295918664 
0.0097001206435 0.0084139530738 0.0084065017099 0.0090339889022 0.0083540208628 0.0082909318542 0.0086169567287 0.0085858438189 0.0087028164702 
0.0088738386684 0.008554165251 0.0083677425788 0.025534470392 0.017201135339 0.016021735121 0.0084343182965 0.0091812965235 0.010085284446 
0.010020886187 0.0097078566188 0.0090087486334 0.010576284375 0.011105466538 0.0099260127743 0.008112237512 0.010563398331 0.010103260321 
0.011016259768 0.021297130287 0.020056635668 0.011351571539 0.0093265390315 0.0085205301014 0.016256405457 0.012525906664 0.0095183380733 
0.010280751045 0.034368528085 0.023724774034 0.024968286856 0.025354913245 0.017025121195 0.015538204379 0.0093355522631 0.015435600617 
0.0092322713 0.0069704674896 0.007316858156 0.0076515909876 0.01073936622 0.0076211620479 0.0084992645115 0.0073009803255 0.0071973147745 
0.0067376272348 0.015312422652 0.011618138585 0.011331831718 0.01550019423 0.0271307994 0.024067935472 0.0093553493851 0.0081775085368 
0.02454442245 0.023821381141 0.015785570816 0.023846890888 0.017321069081 0.016701679542 0.02423039398 0.023747922745 0.03645089695 
0.025353511863 0.006445593897 0.0058328694047 0.0063712476867 0.0104902285 0.017204435765 0.013574853915 0.035295973 0.01715634692 
0.019350953617 0.024150877728 0.0078449417433 0.0080839993617 0.016518206707 0.015433284195 0.015958947423 0.015802270706 0.055298652671 
0.031573601881 0.047830874304 0.022241620896 0.0072543968597 0.0079221066393 0.01566448807 0.031668301968 0.015850621841 0.0079464462075 
0.0079906424888 0.0079547184804 0.0077763027876 0.007936576434 0.0087388749695 0.016261367462 0.015781207266 0.0079258759053 0.0082709766264 
0.016834866501 0.024770840823 0.01469032999 0.0073553464799 0.0080637962712 0.015478781069 0.015641594659 0.0081539792893 0.0087835898247 
0.0085581644249 0.017905228363 0.017237973941 0.016797310965 0.016332691976 0.0078236983997 0.015790682488 0.015873383866 0.0079197995279 
0.015111485326 0.033930783882 0.032931762413 0.016430827087 0.0149152596 0.018159289853 0.01199755341 0.010946244654 0.0093640037189 
0.0089317902304 0.0089746243712 0.0073973945942 0.010357316394 0.008546951095 0.0080942083284 0.0082592584967 0.0082170211183 0.0081651938906 
0.0086569546485 0.0083337203717 0.0091995642335 0.0094663708756 0.010525673216 0.016857253992 0.0082893250085 0.0082511395065 0.0091516043665 
0.0096858605406 0.009131567109 0.0088092011572 0.006618806699 0.0061979879513 0.0062252106785 0.0047150812912 0.0060677237689 0.0050931642851 
0.0056114014361 0.0047067399424 0.0052475879525 0.0058963606041 0.0047847188781 0.0050213309489 0.0053725964478 0.0077246355125 0.0089198457668 
0.018561211046 0.014436392337 0.014266935789 0.0080051716594 0.009119379509 0.0087712270627 0.0078684767629 0.007451047779 0.0066118643888 
0.0092406797833 0.0086316830415 0.008596474049 0.0089454711115 0.0076409958806 0.0097883671186 0.0095450045818 0.0074445551424 0.0074576981224 
0.0082226029625 0.0081486899286 0.0083283103223 0.0069440340499 0.0078128085516 0.0072216968936 0.020517909645 0.032963074753 0.016743484756 
0.0087273058246 0.0086491345533 0.016132049853 0.015183837184 0.015608301865 0.0082471518888 0.0088381536418 0.0083966287045 0.0083945137569 
0.0079301133996 0.0079255619553 0.0079124938227 0.0079159204604 0.0079149933607 0.0079024402093 0.007913322029 0.007909169371 0.0079356332793 
0.0087402261284 0.0082617646693 0.0079054566925 0.0058911333138 0.0075125856172 0.0047106433752 0.0052228444113 0.0055259274318 0.0038621856806 
0.0045122075001 0.0061875081722 0.0051397877343 0.0049615660256 0.003590658871 0.0057395534578 0.01437815595 0.015480578589 0.0086700810701 
0.0087627276838 0.0085340826556 0.0078731929896 0.0078841943584 0.015963314996 0.0078980676948 0.015944902987 0.0078827507141 0.0078956203607 
0.0079034456917 0.0078966787913 0.0079077614758 0.0079320870944 0.0088717926084 0.0088690299628 0.0089221366623 0.0071720795674 0.01535841821 
0.026965660498 0.014538475613 0.019793853913 0.016044483989 0.0080494814362 0.0074566933415 0.032873529708 0.024994312722 0.0074284765005 
0.0090156437711 0.0087362186943 0.01752234469 0.017238558154 0.017187383438 0.024930026589 0.033285217209 0.016289219151 0.0081576713514 
0.0082213757374 0.0084821076948 0.0085848929291 0.026169155752 0.033102639853 0.016899205646 0.0073742892222 0.0077314431776 0.0082300768472 
0.0082059182809 0.0073836458604 0.0085853212717 0.014731642771 0.01755340267 0.055761327336 0.040169817021 0.018495698739 0.0092010747752 
0.0075531680108 0.0073108427745 0.015158155025 0.017006314848 0.016274564859 0.0078147068701 0.0078274114165 0.0082074261605 0.0078426572702 
0.0083522943845 0.008868705034 0.017731068281 0.015377273919 0.01781234622 0.015310435904 0.00698933921 0.0063057729248 0.0081859318331 
0.0086165738282 0.0086257728326 0.017023792207 0.015694195694 0.0081788900301 0.016446799737 0.033690817864 0.033762562246 0.016687226032 
0.016467455739 0.034321533965 0.016089070365 0.0078795757902 0.016514831693 0.008793253149 0.0081237193187 0.016652155761 0.0075860215109 
0.0075750300086 0.0082381866064 0.0082135504119 0.016284166688 0.015751522195 0.008097764643 0.0080836360493 0.016025695522 0.016389705387 
0.015522614128 0.0077532212467 0.0080150384674 0.0085502095365 0.0080098970721 0.015993436329 0.015158704955 0.015979186622 0.015936966482 
0.015932289128 0.023772862937 0.0079620826251 0.0079272101762 0.0079098363023 0.015820671679 0.031612749794 0.025604884562 0.0088220316611 
0.0097205804083 0.018462718501 0.019624077783 0.031704831751 0.055492861652 0.031715721964 0.016197516573 0.016017756236 0.031731393792 
0.015768779264 0.0079455577874 0.0079351207521 0.015915469403 0.015911827042 0.007963009352 0.0079498276103 0.015881060498 0.01589934402 
0.03103723217 0.031034660421 0.031745961933 0.023797136545 0.015877943556 0.015866171362 0.015887910095 0.031644605044 0.039545424089 
0.015786321174 0.015742901263 0.0078533779529 0.0078431277309 0.0078549277139 0.0078650744601 0.024719598272 0.015839132399 0.031939995389 
0.016236652154 0.023852276034 0.024027229899 0.015948341553 0.015940984627 0.025196807455 0.0084955886898 0.0081776093986 0.016717511656 
0.02744647617 0.018185267623 0.025913436073 0.0160911825 0.01608625166 0.01600446191 0.02614718666 0.026017415863 0.0086329299653 
0.0069747499295 0.007967263276 0.008944069936 0.018986987578 0.031963857759 0.016021498602 0.016329298791 0.016178008639 0.016662349742 
0.0079980193003 0.0078505724935 0.015797421584 0.016336714236 0.016050415661 0.015563988418 0.0081030338108 0.01586563769 0.016148823275 
0.007922127506 0.0080472055078 0.016727370684 0.015215568996 0.016146686467 0.0082623894468 0.0081123020307 0.016148030227 0.029999732814 
0.024130058478 0.0080248404888 0.0080868733634 0.008180006062 0.0082609106569 0.008260852508 0.016445624292 0.0079525063143 0.0081429810612 
0.025024580044 0.024838071027 0.024857024867 0.016380400818 0.007977051996 0.0083365742202 0.0085038948655 0.0082918377308 0.0081194270357 
0.0084196478537 0.0086741412748 0.016755612918 0.023998281649 0.016516675777 0.016640205663 0.032191218652 0.032792014468 0.016907486897 
0.0084755218727 0.0082952714793 0.0083262296385 0.0084698283108 0.016907574938 0.017046846394 0.016861022513 0.016530136891 0.0080697678733 
0.0083062296626 0.0085738587012 0.017334445628 0.016510807716 0.023835382692 0.016815531927 0.008737742278 0.0080385326492 0.0082159016486 
0.0091839603364 0.0091359799467 0.0082761315735 0.0074708267294 0.0075349229949 0.0083452797038 0.0088263262488 0.017524909466 0.033106488999 
0.016861262315 0.0082956891047 0.0079489610214 0.0081493921714 0.0082434026368 0.016244329794 0.016321750977 0.016262332941 0.01809319441 
0.025417072413 0.014715216772 0.0070655007455 0.0081788547248 0.0081145991255 0.015821055238 0.018295545026 0.0083791070904 0.016291740293 