# vtk DataFile Version 4.2
vtk output
ASCII
DATASET POLYDATA
POINTS 19092 float
16.2638 -15.3829 1.53195 15.885 -15.2623 1.40733 16.2508 -15.3737 1.39792 
15.8742 -15.2707 1.65902 15.7484 -15.2224 1.50598 15.374 -15.0723 1.43662 
15.2488 -15.0186 1.38105 15.3737 -15.0622 1.18653 18.7582 -15.8691 1.53339 
18.7456 -15.8536 1.26348 18.9993 -15.9042 1.40883 18.4999 -15.8346 1.68638 
18.3745 -15.8087 1.65896 18.5335 -15.83 1.42108 18.2494 -15.7795 1.53377 
18.1244 -15.742 1.28396 18.2498 -15.7628 1.2839 17.1483 -15.5968 1.37932 
17.153 -15.5978 1.44418 17.0485 -15.5725 1.37446 18.7505 -15.8719 1.65876 
18.4989 -15.8439 1.81506 18.3741 -15.8181 1.784 18.2497 -15.7924 1.78399 
17.0087 -15.5667 1.45769 16.8877 -15.5393 1.40297 16.3743 -15.4099 1.40894 
16.3744 -15.4151 1.53395 16.7491 -15.5347 1.90888 16.6383 -15.5043 1.90683 
16.6235 -15.4817 1.42861 14.9958 -14.9154 1.53561 14.9988 -14.9028 1.25615 
15.1238 -14.9741 1.56332 20.4993 -16.0517 1.53381 20.4993 -16.0422 1.40888 
20.6243 -16.0474 1.40891 16.3984 -15.4437 1.921 16.506 -15.4526 1.5418 
16.4994 -15.479 2.13115 16.3746 -15.4517 2.31171 16.2379 -15.4032 2.04021 
16.3737 -15.4312 1.78388 16.2448 -15.3944 1.78634 20.6243 -16.0544 1.53394 
20.7493 -16.052 1.40886 16.1242 -15.3598 1.88112 15.7487 -15.2407 2.00603 
15.7489 -15.2301 1.75607 15.499 -15.1362 1.75607 15.4986 -15.1424 1.88106 
15.3742 -15.0888 1.81169 15.2367 -15.0266 1.64704 20.7493 -16.0542 1.53386 
20.8745 -16.05 1.40875 20.8742 -16.0514 1.53399 20.9999 -16.0426 1.40847 
20.9995 -16.0467 1.53376 21.3857 -15.9916 1.67091 21.5157 -15.9379 1.39231 
21.6249 -15.9348 1.53348 21.8756 -15.8233 1.28305 21.9027 -15.839 1.53374 
21.7643 -15.9023 1.54473 22.2309 -15.6521 1.53351 22.1418 -15.7073 1.51716 
22.2515 -15.6256 1.40805 22.3861 -15.5696 1.66564 22.3769 -15.5414 1.43608 
22.411 -15.5325 1.55554 22.6298 -15.383 1.65838 22.5008 -15.4391 1.41001 
22.6258 -15.3603 1.53431 20.1242 -16.0333 1.53389 19.9993 -16.0132 1.40891 
20.1242 -16.0184 1.28384 19.5085 -15.9793 1.52591 19.2492 -15.9393 1.40892 
19.5209 -15.9618 1.28399 18.874 -15.8902 1.53381 18.9992 -15.9096 1.53383 
19.6242 -15.9898 1.53377 19.7692 -15.9846 1.28398 19.8744 -16.0005 1.40893 
19.6243 -15.9957 1.65886 19.8743 -16.0102 1.53379 22.2549 -15.6628 1.67885 
22.1146 -15.7431 1.6459 19.999 -16.0324 1.65879 17.9996 -15.7425 1.65891 
22.6289 -15.4146 1.78545 22.5014 -15.5139 1.78303 22.6268 -15.448 1.90821 
22.5023 -15.5467 1.91044 22.3742 -15.6043 1.7845 22.5032 -15.5834 2.03435 
22.6249 -15.4856 2.03447 22.625 -15.5277 2.15836 22.7586 -15.4269 2.18529 
22.7088 -15.5473 2.38738 22.6004 -15.6456 2.40932 22.5128 -15.6633 2.28443 
22.5011 -15.7708 2.53396 22.6262 -15.7275 2.65863 22.5015 -15.8216 2.65887 
22.6333 -15.7703 2.78373 22.7523 -15.6723 2.78459 22.7415 -15.7248 2.89834 
22.6314 -15.8184 2.91002 22.5557 -15.8415 2.81061 22.5175 -15.9056 2.91815 
22.4374 -15.9192 2.79771 22.3489 -15.9273 2.67579 22.3051 -16.0067 2.8104 
22.3758 -16.0004 2.92137 22.2678 -16.1122 3.03034 22.2384 -16.0901 2.93317 
22.1883 -16.0838 2.8409 22.2206 -16.0129 2.70483 21.5054 -16.25 2.81803 
21.4447 -16.2385 2.78894 21.556 -16.2215 2.74042 21.4528 -16.3588 3.10825 
21.267 -16.3629 3.06071 21.4512 -16.3191 3.00766 21.3823 -16.1953 2.6751 
21.5238 -16.1667 2.61011 21.5864 -16.1266 2.4861 21.6948 -16.1841 2.63488 
21.8 -16.1061 2.51425 21.7793 -16.1624 2.61736 21.1419 -16.3385 2.96617 
21.2984 -16.3048 2.93276 21.1549 -16.2838 2.84592 20.9993 -16.3076 2.90039 
20.9993 -16.2627 2.78349 21.1773 -16.2243 2.69457 21.3192 -16.2535 2.80684 
21.2667 -16.1729 2.56492 21.4048 -16.1416 2.51349 21.8652 -16.1351 2.62589 
21.9528 -16.112 2.65354 22.1207 -16.0876 2.76097 22.0395 -16.0958 2.69871 
21.9777 -16.0269 2.47614 21.5214 -16.4184 3.28907 21.4114 -16.4727 3.46852 
21.2816 -16.4806 3.47871 21.5896 -16.431 3.35392 21.8588 -16.4141 3.52659 
21.7826 -16.4153 3.41258 21.8946 -16.3863 3.40922 22.1208 -15.9561 2.44158 
22.1071 -16.0249 2.59631 22.2377 -15.9411 2.55937 22.252 -15.8816 2.4074 
22.3762 -15.8542 2.53422 22.3797 -15.803 2.40355 22.2496 -15.8322 2.28515 
22.3274 -15.7697 2.23208 22.4063 -15.6973 2.16699 22.2521 -15.6952 1.81093 
22.2792 -15.7509 2.07596 22.1499 -15.8017 2.02363 22.1422 -15.7741 1.89159 
22.0269 -15.831 1.90919 21.9995 -15.8211 1.7834 21.888 -15.8935 1.91979 
21.8763 -15.8795 1.78295 21.7347 -15.9237 1.675 21.7666 -15.9308 1.89195 
21.6521 -15.9651 1.90906 21.6416 -15.9438 1.64195 21.5118 -16.001 1.92061 
21.2493 -16.045 1.90882 21.249 -16.0599 2.03419 21.4998 -16.0226 2.06181 
21.6243 -15.9889 2.03509 21.5974 -16.026 2.15867 21.2769 -16.0771 2.15934 
21.4288 -16.094 2.33359 21.6703 -16.063 2.32457 21.7372 -15.9871 2.14802 
21.868 -16.0104 2.32422 22 -15.9068 2.15958 22.0187 -15.9593 2.33611 
22.1271 -15.8989 2.28322 22.126 -15.8551 2.15931 22.0002 -15.8719 2.03423 
21.7497 -15.9515 2.00657 21.9527 -16.3839 3.52976 21.2493 -16.1349 2.40903 
21.2218 -16.1123 2.28361 21.1245 -16.1481 2.40876 21.0968 -16.1248 2.28391 
21.1366 -16.0972 2.14701 21.0036 -16.1114 2.161 20.9703 -16.1279 2.28129 
20.9992 -16.152 2.40908 20.7493 -16.125 2.28386 20.7493 -16.1503 2.40886 
20.624 -16.1433 2.40897 20.4994 -16.1272 2.40126 20.7493 -16.1034 2.12491 
20.8744 -16.0928 1.91328 21.0273 -16.0944 2.03573 20.998 -16.0859 1.91135 
21.141 -16.0764 2.0173 21.1247 -16.0431 1.65867 21.2329 -16.0143 1.55045 
20.9993 -16.0558 1.65897 21.125 -16.0338 1.53354 20.8745 -16.0786 1.78343 
20.8743 -16.0618 1.65904 20.7493 -16.0642 1.65886 17.883 -15.7103 1.4047 
20.6243 -16.0646 1.65879 17.6994 -15.688 1.46266 17.7918 -15.6967 1.3697 
17.7701 -15.6996 1.51838 20.4993 -16.0603 1.65886 17.3929 -15.7006 1.41413 
17.324 -15.6708 1.45368 17.3057 -15.6871 1.36966 20.3743 -16.0536 1.65896 
20.3743 -16.0472 1.53381 17.1928 -15.6342 1.34756 17.2557 -15.6456 1.4121 
14.495 -14.658 1.53263 14.4983 -14.6552 1.25617 14.6387 -14.7354 1.39247 
14.374 -14.5803 1.43678 14.1301 -14.4281 1.31442 14.2476 -14.506 1.25615 
14.6211 -14.7329 1.75614 14.7513 -14.7965 1.55291 14.7371 -14.7799 1.27201 
22.7532 -15.2492 1.53394 22.7635 -15.1834 1.18325 22.8146 -15.16 1.34795 
19.2779 -15.957 1.6693 19.1243 -15.9272 1.53388 19.3736 -15.9769 1.7559 
19.249 -15.9651 1.93652 19.1247 -15.9339 1.78392 19.1246 -15.9406 1.90893 
19.1283 -15.9612 2.16168 19.3741 -15.9848 2.00603 19.4994 -15.9977 2.03395 
19.6242 -16.0072 1.90887 19.4994 -16.0052 2.15903 19.7492 -16.02 1.90884 
19.7491 -16.0266 2.03389 19.8744 -16.031 1.90881 19.8744 -16.0357 2.0339 
19.9992 -16.0442 1.90884 19.9995 -16.047 2.03395 20.1242 -16.0561 1.90883 
19.9994 -16.0545 2.15903 20.2492 -16.0658 1.90877 20.1242 -16.0686 2.15902 
20.3742 -16.0746 1.90871 20.2492 -16.0799 2.15897 20.3743 -16.0876 2.15896 
20.4993 -16.0791 1.9088 20.6243 -16.09 2.03397 20.6243 -16.0751 1.7837 
20.4993 -16.0701 1.78383 20.3745 -16.0971 2.27798 20.2492 -16.0909 2.27588 
20.2493 -16.1071 2.40903 20.3744 -16.1149 2.40255 20.2494 -16.1257 2.52621 
20.1273 -16.115 2.52919 20.1206 -16.097 2.40758 20.002 -16.0993 2.53061 
19.9967 -16.1247 2.65769 20.1243 -16.1408 2.65919 19.9991 -16.1555 2.78385 
20.1245 -16.1708 2.78423 20.2493 -16.1556 2.65912 20.2494 -16.1882 2.78438 
20.3745 -16.17 2.65945 20.3744 -16.201 2.76843 20.4993 -16.1879 2.6594 
20.5011 -16.2219 2.77254 20.6296 -16.2026 2.65046 20.624 -16.1725 2.53373 
20.7493 -16.1803 2.53386 20.7493 -16.2511 2.78386 20.6183 -16.2434 2.79133 
20.6241 -16.2778 2.8957 20.4977 -16.2618 2.8969 20.3741 -16.2478 2.90856 
20.3741 -16.283 3.01651 20.2496 -16.2643 3.01963 20.2486 -16.2234 2.8977 
20.1242 -16.2465 3.03364 20.1243 -16.2818 3.14279 19.8741 -16.2803 3.26966 
19.9986 -16.2203 3.02429 19.874 -16.1995 3.02135 19.7515 -16.2595 3.27362 
19.624 -16.236 3.28338 19.6239 -16.2738 3.40221 19.497 -16.2059 3.28301 
19.3725 -16.2575 3.53264 19.3747 -16.2945 3.65911 19.6238 -16.3143 3.53333 
19.7492 -16.2999 3.40893 19.7468 -16.3375 3.53246 19.8741 -16.3203 3.40323 
19.8741 -16.3597 3.53338 19.9984 -16.3402 3.40399 19.874 -16.3925 3.6522 
19.7512 -16.373 3.65437 19.7493 -16.4 3.7836 19.874 -16.4214 3.78337 
20.1244 -16.4266 3.65877 20.1243 -16.4546 3.77854 20.2491 -16.4457 3.65855 
20.2472 -16.472 3.77879 20.3741 -16.4588 3.64937 20.3741 -16.4327 3.53339 
20.4993 -16.4456 3.53347 20.5033 -16.4714 3.65324 20.6362 -16.4619 3.54542 
20.6245 -16.4271 3.40877 20.7493 -16.4428 3.40886 20.7493 -16.473 3.53386 
20.8576 -16.4864 3.55018 20.8798 -16.434 3.31922 21.0298 -16.4652 3.40079 
20.9664 -16.4937 3.54854 20.8741 -16.5095 3.65845 20.9992 -16.5152 3.65876 
21.1099 -16.4915 3.51035 21.1293 -16.5138 3.64032 21.2674 -16.5106 3.62207 
21.4081 -16.5003 3.59024 22.0784 -16.3317 3.53713 22.0033 -16.3413 3.38807 
22.4729 -15.9746 3.04186 22.3302 -16.16 3.33287 22.2474 -16.1998 3.21347 
22.2728 -16.1509 3.1252 22.1923 -16.2691 3.48624 22.1924 -16.2547 3.28952 
22.2958 -16.2029 3.47536 22.1099 -16.3069 3.34912 21.882 -16.4188 3.64828 
21.7781 -16.4448 3.62478 21.9903 -16.3854 3.66097 22.0999 -16.3373 3.69642 
22.024 -16.3776 3.78154 21.8916 -16.4274 3.76908 21.939 -16.4116 3.86829 
21.8204 -16.4493 3.76898 21.7605 -16.4827 3.91272 21.8577 -16.4331 4.0105 
21.7493 -16.4902 4.02941 21.8333 -16.4216 4.10265 21.7626 -16.4772 4.14233 
21.8124 -16.4184 4.17984 21.7566 -16.4347 4.22807 21.8112 -16.3797 4.23429 
21.8611 -16.3522 4.20408 21.8369 -16.3072 4.23479 21.8799 -16.2818 4.19213 
21.9175 -16.3118 4.15139 21.9307 -16.2289 4.16198 21.8702 -16.2178 4.20295 
21.8996 -16.1815 4.16575 21.8165 -16.1701 4.21499 21.8056 -16.2573 4.25736 
21.7918 -16.3294 4.27596 21.7597 -16.2895 4.29448 21.7654 -16.1941 4.26403 
21.6926 -16.2425 4.33001 21.6463 -16.2897 4.36967 21.6228 -16.2258 4.36867 
21.6746 -16.1708 4.30693 21.5365 -16.0733 4.34088 21.4996 -16.2154 4.43762 
21.4568 -16.1366 4.42385 21.3882 -16.2063 4.49657 21.4412 -16.294 4.49311 
21.315 -16.2973 4.56007 21.4176 -16.3532 4.52121 21.2394 -16.3511 4.61616 
21.188 -16.2955 4.62251 21.1312 -16.3494 4.66943 21.0633 -16.2946 4.67661 
21.0085 -16.3594 4.7126 21.1032 -16.415 4.68248 21.0467 -16.4437 4.70453 
[...]
CELL_DATA 38180
FIELD FieldData 1
Area 1 38180 double
0.025714618101 0.017539311784 0.016931313426 0.033847237017 0.017440592396 0.01591575796 0.0033194248208 0.015789759163 0.016348859364 
0.0082072058004 0.0080085272084 0.0079647913188 0.015909801887 0.0062636068423 0.0085490901346 0.0072043220077 0.027472040333 0.01966041577 
0.0078374452491 0.046212855464 0.026780807542 0.023054444255 0.031106650113 0.012970972344 0.017027874473 0.016792202029 0.014697276922 
0.050727092634 0.0078322470922 0.026516031684 0.060343729844 0.016629785509 0.016618809368 0.033398649829 0.016704235283 0.0084036757506 
0.025224465867 0.027781610475 0.0078272760087 0.0078665887794 0.0078590849309 0.024901061724 0.019272350807 0.0068614509096 0.0043506358256 
0.0099217623314 0.015722378134 0.032413711554 0.0073995728298 0.0079260782668 0.014136543135 0.031225438742 0.022304513088 0.015706433614 
0.01572198547 0.011624638711 0.011925383704 0.0078616867061 0.015723333377 0.015724382751 0.039711247507 0.018160290234 0.018580426616 
0.010151586646 0.010313935967 0.01015178682 0.010108191168 0.0099342888126 0.010004157108 0.011079407581 0.019254312202 0.018064418532 
0.016533455057 0.015391121768 0.018393190582 0.010260641104 0.010220308387 0.01007900437 0.0091633018344 0.0092949248782 0.0064640312468 
0.0076917517377 0.0083696710607 0.011019251332 0.012644344294 0.010703673381 0.0095829636788 0.0085326923867 0.0090154169716 0.0033012470633 
0.010078762183 0.0083779583692 0.012067421185 0.0047399255788 0.010371722285 0.010111561711 0.0098919677833 0.0097440749798 0.013391682573 
0.012878716468 0.013906281971 0.013113312448 0.011159232784 0.011268172579 0.0052611557382 0.00097062905343 0.0047838937281 0.017494889325 
0.011517246746 0.010035217628 0.0067988392027 0.012471033552 0.011815027393 0.011292006792 0.012391888251 0.011487068976 0.011150475467 
0.010227935527 0.010268549959 0.0096788028534 0.0096734316144 0.01040045847 0.01821612022 0.016191649542 0.035212659105 0.018833739516 
0.01884921128 0.0087937073077 0.008635256604 0.0083737200755 0.017910155416 0.0098140065725 0.0094046490374 0.017084227842 0.018840871594 
0.011582584294 0.014639641396 0.013243757898 0.012677742876 0.019442913291 0.034531601963 0.014417474602 0.032754291723 0.016814391911 
0.01828121262 0.0089528154138 0.0077302512666 0.016040998089 0.02908352529 0.021253802119 0.012994183376 0.018936982373 0.024953358711 
0.014726994998 0.011334130121 0.0094877014916 0.0088853899781 0.0088120466722 0.011425999233 0.017192147298 0.013587565992 0.0076495295227 
0.0090771750652 0.017234998361 0.012195723118 0.017585922539 0.020004565143 0.0091684513556 0.0078315302094 0.020883371183 0.019529197193 
0.0059059290168 0.020281553615 0.016547694878 0.015814544846 0.012678381424 0.008025715165 0.0080133876042 0.0087184562436 0.0089950479618 
0.0077188682005 0.0081990077968 0.014398985985 0.015936558596 0.0080025947308 0.0086015333357 0.020072223016 0.02039693105 0.029232078028 
0.011145791745 0.0077514095617 0.0074518571621 0.0074854614458 0.0072329400615 0.0088404371431 0.025140979534 0.020763521478 0.020662306826 
0.016015312427 0.0079071344915 0.015809866282 0.0078543418534 0.0078553451817 0.0078666884324 0.0078437766991 0.0078332121827 0.038246591184 
0.0078375023745 0.0078291846524 0.0059169901946 0.0078338524913 0.007835748771 0.0034870400621 0.0078451391346 0.0078371264157 0.0019547298538 
0.004744520668 0.022457053842 0.017006410107 0.028519531963 0.02464097442 0.040463404694 0.038375953129 0.016375958298 0.013765498949 
0.026929754277 0.017057794645 0.014240689856 0.019169189471 0.0079207736397 0.015969660197 0.018453618987 0.013250719806 0.009626859195 
0.0078896370937 0.015728878346 0.015727030778 0.0078691329046 0.0078631032135 0.0078549405939 0.0078592550296 0.0078568937616 0.0078752545911 
0.015688939089 0.015749515016 0.015692167021 0.015737660522 0.015703556417 0.015683914602 0.023504236955 0.015675389063 0.031376017135 
0.016341884899 0.015682180018 0.0078368400977 0.0078405448417 0.014954705471 0.0074883295061 0.0084124478458 0.007889712772 0.0074387523966 
0.0072721094139 0.0079243134331 0.00775914899 0.0081860693529 0.0085252718035 0.008338628239 0.0081167916218 0.0080888630011 0.0081554219982 
0.0081516267325 0.0071434767109 0.0071366614434 0.0075572068641 0.0077636214041 0.0079304087909 0.0075598237688 0.015608706373 0.0096025513349 
0.007230812742 0.0069860350174 0.0077560112131 0.0081361711314 0.0070831383947 0.0071487520824 0.0081605258642 0.0081833774232 0.0072947708 
0.014541570934 0.017129800068 0.016454382812 0.01624135428 0.016674973538 0.0081044842339 0.0081174147929 0.025030880839 0.017051827448 
0.017513047437 0.0087411935141 0.0080796812349 0.0081793654439 0.0088301821984 0.0087714476241 0.0085480971815 0.0077149900336 0.0076616911673 
0.0082089677833 0.0084923467694 0.016952994776 0.015529249454 0.0077537362244 0.0076397244542 0.007741281325 0.0074827080557 0.0074800153468 
0.007932926523 0.0083965049467 0.0096051650085 0.008842456471 0.0073236411056 0.0069887209213 0.014523151669 0.018778752317 0.0082012406402 
0.0060371394031 0.0070089392744 0.008684332277 0.0087578703148 0.011647520158 0.009981361704 0.0094317389999 0.0087263402083 0.0099679420206 
0.014889355476 0.0071365009108 0.012062055084 0.0093972826489 0.011221701591 0.0098324054946 0.0062905048812 0.0059959617745 0.007244888558 
0.0088690101258 0.0092627064799 0.0066244148061 0.0083203158775 0.006707243766 0.0036937833101 0.0045187824199 0.012329521299 0.011849096739 
0.007021614494 0.0056515587733 0.0054459303018 0.0032739893953 0.0030900452795 0.0023040704986 0.0021300581449 0.00186786289 0.0018621911555 
0.0022822123828 0.0023751085354 0.0022632098066 0.0016623138448 0.0021663267988 0.0032037451098 0.0028709714749 0.0019538852783 0.0017770323361 
0.0025286386429 0.0042177672822 0.0032494081246 0.0024347674662 0.0030585964254 0.0081852827916 0.011453453962 0.0058003972895 0.0052354533339 
0.0054826190496 0.006533479581 0.0042836177603 0.0057069858242 0.0040753522329 0.0034687569338 0.0039459880951 0.004028770623 0.0041215079893 
0.0031172950436 0.0031886025865 0.0041184027854 0.006110209884 0.0045952389173 0.0028341333789 0.0033277025677 0.0027238574623 0.0028381738332 
0.0036948214179 0.0023167111748 0.0021418517558 0.0022329450252 0.0028472616787 0.0057344328085 0.0050802866538 0.0028164162677 0.0039930169513 
0.0033936949622 0.0060147175202 0.007205505986 0.0079306653907 0.0073534579282 0.0072857382982 0.006241491388 0.0064203542635 0.0055356897134 
0.0069187262323 0.0044861877174 0.003272879898 0.0034547399864 0.0056429974124 0.0032027665128 0.0028062686093 0.0023830099589 0.0046528300101 
0.0046628479621 0.0029139056883 0.002534596583 0.0019416353531 0.0021143477783 0.0050285891001 0.0027573877147 0.0030675848568 0.0044833667483 
0.0023295682416 0.002599363987 0.0023155783908 0.0024608412496 0.0023355507319 0.0024561527248 0.0059252492217 0.002928998763 0.005321308611 
0.0056046290777 0.0026786241652 0.002826983164 0.0031327988678 0.002801773558 0.0029537000819 0.0019220281725 0.001839719366 0.0021817083096 
0.0021619537532 0.0022920538002 0.002334946727 0.0028028607203 0.0028662740292 0.0019540582159 0.0021660815755 0.0034887737017 0.0031610692634 
0.0030933405912 0.0060030748532 0.0032588945257 0.003282420721 0.0047771164006 0.0055380949576 0.007370460688 0.0068458885203 0.0085836849249 
0.011035030323 0.0096778763267 0.011910621583 0.014417352237 0.0098138937157 0.010542460006 0.012041203896 0.010054916874 0.0097843661976 
0.010651903937 0.0093932974125 0.0085783783392 0.0095311209251 0.0079388117304 0.0079022426689 0.0091290787041 0.0079223033847 0.0079100839823 
0.0079300986529 0.015827813495 0.015777018525 0.023771665986 0.0079313504888 0.031637081032 0.016232652536 0.016506369118 0.015345000352 
0.0079561661444 0.0079643513264 0.0077346803659 0.0075362580603 0.0082703854634 0.0080391402586 0.0082581045191 0.016477414332 0.015753437233 
0.007868995256 0.0157073279 0.015731930482 0.015753526686 0.015733662335 0.0078981004268 0.0078967716748 0.023640240456 0.01577843194 
0.015793320626 0.0078807194928 0.0078992669218 0.0079608191048 0.02394087916 0.0086233020285 0.0078712107068 0.0047849932619 0.0056131533804 
0.0035308958562 0.0037437305444 0.0045337540151 0.0038735230841 0.0040858066754 0.0038959309176 0.0034826870147 0.003351120309 0.0041614778293 
0.0080083030068 0.0084072723374 0.0089756615361 0.008554668529 0.0067293448254 0.0076075664077 0.0088561703384 0.0080007410203 0.0078483237219 
0.015773951333 0.014448020325 0.014444593135 0.0094480999666 0.015723009873 0.015700098291 0.015690342372 0.023590460177 0.015682604037 
0.0078366251819 0.0078693219437 0.015747917407 0.023786987915 0.0079303709242 0.0078998420015 0.0079055774734 0.0079574278799 0.0079365235491 
0.0079664310552 0.0079821919271 0.015977254937 0.015998062427 0.015997692107 0.032318513292 0.032221938875 0.0080216877582 0.016082847539 
0.024336539315 0.024438013016 0.032205032867 0.016255160982 0.01651241249 0.032249214624 0.015963911749 0.0080178133652 0.0079883030745 
0.007988882206 0.0079699209053 0.0073916363843 0.007854375494 0.0076419763031 0.0088216752748 0.0079028301973 0.0071035209687 0.00753317842 
0.0077815157779 0.0077563217405 0.006344604961 0.0061643303081 0.0076892165085 0.0077195998895 0.008376009358 0.0087547259576 0.0078967659093 
0.0078860783089 0.0078704717064 0.0078550698204 0.0078530683258 0.0078479724203 0.007849296131 0.0078341692349 0.0078326101273 0.0079251820005 
0.0079234531467 0.0081923052349 0.0075765482265 0.0075225488286 0.0049634271469 0.0072430714306 0.01085128389 0.0088383637445 0.0072600624636 
0.0072894127307 0.0059236222353 0.005090475508 0.0030910171425 0.0034214952374 0.0028799578726 0.0034974909138 0.0038525282145 0.0038953716382 
0.0060643933307 0.0073701410818 0.0067835294038 0.0031785011857 0.0023279383971 0.0023316134723 0.0034101370447 0.005550234963 0.0067702607023 
0.005442611978 0.0063887923706 0.0062804287171 0.008144994684 0.0052185915833 0.0058614235549 0.0082729455654 0.0051845297896 0.0067220376573 
0.0047261514575 0.0055115353223 0.005515817696 0.0053296503089 0.0042521635312 0.005075147909 0.005180901615 0.0059988804886 0.0047741424218 
0.0049803629098 0.0073133107895 0.013618738594 0.015695291741 0.007738651728 0.0077618806618 0.0074155340382 0.0080258271059 0.0064123914253 
0.0064282560124 0.008171062809 0.0090673027872 0.0090557791189 0.0079207538024 0.007924948581 0.0079280167169 0.0079327610917 0.0079437986762 
0.0079269299749 0.0072322825602 0.007711020422 0.0067209681787 0.0066953590091 0.0073808089411 0.0071366645258 0.0079609999682 0.0079788690262 
0.0079668933453 0.0080072253802 0.0079785631166 0.016618269706 0.016751226331 0.016135009732 0.0080117391591 0.0069503460478 0.0063303905416 
0.0065867649234 0.0083579569188 0.013501472092 0.022627057318 0.020877072384 0.0081286560594 0.0080530999631 0.0080122888516 0.0079884250928 
0.0079993865786 0.0079599320733 0.0079772386818 0.009674221577 0.0079584010378 0.0079756012851 0.0097158318994 0.0079905141352 0.0080173159005 
0.016142437861 0.0080534762942 0.01619611984 0.0080053675347 0.0081271429343 0.0082029925782 0.008202510138 0.016414243488 0.016397146425 
0.0085674042389 0.0083354021061 0.0078889014104 0.0081449809113 0.0089116602609 0.0086430653622 0.009132132246 0.0090709538505 0.0072857806629 
0.0072261692201 0.0079124676427 0.0076284536412 0.0081631782014 0.0081964157075 0.02455542172 0.024879355725 0.0082315785357 0.0082966160272 
0.0082514020483 0.0084268831585 0.0085814770537 0.0088409382203 0.01678506289 0.016648787141 0.0084631748983 0.0083436065649 0.008322217944 
0.016448459585 0.033303502773 0.017025290179 0.02550582019 0.016152512716 0.016317826717 0.032882853222 0.016533231574 0.0073918270723 
0.007382679222 0.0081933770294 0.0085861132582 0.017239357846 0.015377795561 0.0075066545025 0.016278517004 0.0080788895474 0.0079727174506 
0.016051612899 0.015913481212 0.015838888393 0.0079120902249 0.015854503364 0.016416394863 0.0079068511069 0.015802626487 0.015454944739 
0.0078064664063 0.0073677837599 0.015774939685 0.0078683404545 0.0078755996332 0.015760542707 0.0078680164065 0.031516395514 0.031626992384 
0.015735841416 0.015853300182 0.0079407019415 0.0079659364858 0.015975201202 0.015872858311 0.031718580112 0.008039422333 0.015842593558 
0.031421980862 0.015810752405 0.015450046852 0.0077897019018 0.0077693829581 0.0079771817399 0.015973874649 0.015903286583 0.015882433599 
0.039774526103 0.015870192707 0.0078970409176 0.0078964001064 0.023722009803 0.023753352494 0.015829580924 0.0079099108045 0.0079173686176 
0.007926089609 0.0078527929056 0.0078493900158 0.0086494255291 0.012175571251 0.012750061302 0.0069182803306 0.023636045865 0.015774821877 
0.0079108537601 0.0079044429593 0.0079146392008 0.0079520920232 0.0079351789103 0.0079373066473 0.0079556736243 0.0079671380583 0.0079348038119 
0.0079669316429 0.007851868759 0.0079159748317 0.0079240610685 0.0080638110998 0.0079043662351 0.0079001971248 0.0078881155742 0.0080365360435 
0.0080560079813 0.0081667037985 0.0081952687778 0.0082082086537 0.0081804062013 0.0081378264164 0.0080598660939 0.0080854962568 0.0081984130419 
0.0082095526437 0.0081730947875 0.0081701278872 0.0082285490647 0.016421599957 0.016160316998 0.0081746618555 0.0083919762266 0.016669695226 
0.016202307155 0.015720466331 0.0078414092693 0.0083125969192 0.0081202150654 0.0080714566297 0.0080334280695 0.00789684283 0.0079154724874 
0.0080940611811 0.0080618754614 0.0081238727239 0.0082799880172 0.0084604744037 0.0083137224662 0.008240036542 0.0085664871103 0.0081724020693 
0.0082311787083 0.0069806984985 0.0070708653382 0.015762986403 0.016768520652 0.0085174001022 0.0081380291998 0.0084319777621 0.0084154820789 
0.0084601484449 0.0084941640442 0.0083555186307 0.0083132093828 0.0082974577198 0.0083071342654 0.0082031770123 0.0081542188022 0.008238910385 
0.009093616828 0.0090339142553 0.0078256856296 0.0079917695322 0.0076074266532 0.0075970825655 0.0086871151079 0.0082857260589 0.008747590712 
0.0085415370562 0.0082997577465 0.0083851766822 0.0082581196567 0.0164281482 0.016429140981 0.016459814422 0.0082866268279 0.032855826759 
0.04079993888 0.025290434704 0.02454164063 0.01582354753 0.0082098289585 0.0082322983072 0.0080804677296 0.0080313357772 0.0081943006673 
0.016227616024 0.01699811982 0.042003477381 0.023766768188 0.0077455363649 0.016492079433 0.0080615636218 0.016594137489 0.016335494647 
0.008076378676 0.0081220581479 0.0080686287947 0.0080528843672 0.0079803038777 0.0079322850188 0.0080307091755 0.0080248877382 0.0079605823749 
0.0079394594754 0.0079409752401 0.007983398626 0.0077304405738 0.0077780028326 0.0094147935189 0.01024624479 0.018295024183 0.015084802394 
0.0079815405927 0.0079926501438 0.0079765112674 0.0087543431931 0.010134252264 0.0073232564081 0.0073098109982 0.0063986177289 0.0068281316942 
0.01586747507 0.032130002358 0.0079825662196 0.023766645463 0.038433786654 0.039696773635 0.015622893774 0.01033469049 0.016449483924 
0.020753650966 0.021112521549 0.011696082118 0.021501178018 0.0073366126511 0.03026517572 0.015582185217 0.037500450994 0.022053429804 
0.021560467856 0.0060507950496 0.031283263752 0.0048253557092 0.019974532658 0.0095947601565 0.012370837265 0.0067320856726 0.0070574466244 
0.0059658003403 0.00852940242 0.0082619288005 0.016071394931 0.036744448629 0.037604396914 0.019095427278 0.016146624334 0.016141693343 
0.042221939409 0.024325669175 0.016238322796 0.008086070593 0.0072854740786 0.0077097571125 0.010341269057 0.0089459442356 0.011500322464 
0.018325547122 0.0087209208027 0.014768233363 0.0071400192613 0.0083384367443 0.0081595577593 0.015794964306 0.046169992816 0.059837788095 
0.033337074994 0.049605210906 0.0490544235 0.028979601395 0.020533912692 0.029594383249 0.054399145577 0.051076000056 0.01687622554 
0.018518599811 0.050640325466 0.016886810044 0.033897588147 0.013941279618 0.020288331571 0.022630972963 0.046314849404 0.045455882634 
0.022525127648 0.012532403556 0.009456071088 0.0096624128359 0.01321826003 0.011185857607 0.018022504598 0.015119512804 0.0073082186662 
0.016017453938 0.016892690388 0.0098536638099 0.0092992845209 0.011718469184 0.0099505410786 0.011263319256 0.014633982502 0.018239727255 
0.020412500679 0.0093943369045 0.016507340157 0.017992432436 0.018101845356 0.017897991063 0.0089615135074 0.0089997629506 0.009054788371 
0.03916856818 0.020148120967 0.016795940178 0.010795548537 0.010225721692 0.010257516491 0.01078384581 0.0099298988233 0.0097853884875 
0.010382325967 0.020853830116 0.010064847689 0.011028361789 0.010571817059 0.0095895871235 0.019705276847 0.010137748089 0.011067076629 
0.010539187321 0.0074754566103 0.0086198164607 0.0098820682734 0.016765683787 0.026052627224 0.023720804652 0.015723237763 0.015828678148 
0.024021136957 0.0098819346135 0.018076346975 0.016354993816 0.01618859376 0.018620855819 0.029003478475 0.020364397601 0.012875363496 
0.0099468603756 0.0096815143408 0.015570006391 0.012398459491 0.0093365936538 0.010784996593 0.030450025053 0.022574272306 0.016779527871 
0.0087182606029 0.0079151536999 0.01171049508 0.02164187299 0.035790217472 0.011341166942 0.011596282396 0.013768111589 0.01318926319 
0.0085849909187 0.0098347122046 0.0087954238204 0.0094013205404 0.0083244402399 0.011932209158 0.010534998977 0.011515679671 0.011389821747 
0.013796297509 0.013715699567 0.0077598515617 0.019647630162 0.012629943864 0.01439252593 0.0081417888703 0.0080754544673 0.0097945364274 
0.012315226782 0.0096031861924 0.008107447942 0.013128484817 0.010182757877 0.0081067724803 0.0063680659748 0.0060800555874 0.0063639062695 
0.0052082323926 0.010109964409 0.0090612595092 0.0095241079204 0.012102111632 0.011784223496 0.0087932577934 0.0093690020645 0.0086722498851 
0.015937320411 0.0083417361401 0.0083117397665 0.0071196008891 0.0073099531449 0.015775568495 0.032078717274 0.018357512599 0.0090054890702 
0.0093490089094 0.0081039838419 0.0086402039831 0.0086540180323 0.0086500325809 0.0089255328745 0.008676020285 0.0089070933625 0.0081263922536 
0.0081626163464 0.0098464061902 0.0093357146241 0.011665764391 0.01101955919 0.0092278938672 0.012363230923 0.007726155533 0.0069758911709 
0.0087394646331 0.014318069953 0.014543552628 0.0070870922322 0.008626170547 0.0093059238065 0.0057038189036 0.0099890284743 0.0080086502775 
0.0093922095081 0.011494428696 0.009899500471 0.015784780988 0.0085121647093 0.014528394962 0.013932869993 0.0023247368576 0.0042624337226 
0.0032610170122 0.0030384662007 0.003546683573 0.0029970518853 0.0033984310281 0.0037239189505 0.0034711381307 0.0039255770909 0.0031650351565 
0.0035739736493 0.0027771663338 0.0041711825938 0.0042679222875 0.0031935394705 0.0038424488675 0.0030717340266 0.002858169332 0.0040543669247 
0.0044057585452 0.0038885060031 0.0029412866998 0.0029944716333 0.0034615357948 0.0027596175366 0.0032802758084 0.0029748383407 0.0044392467171 
0.0027945589185 0.0025997209877 0.0023967298857 0.0041395653736 0.0033225711607 0.002753516776 0.0029000153556 0.0032484685764 0.0030613698704 
0.0038205323658 0.002423667455 0.0039822233794 0.0042590594116 0.006241512251 0.0026965735496 0.0030840375422 0.0043085967725 0.0036459506803 
0.0033782775208 0.0042068012185 0.0027628138284 0.0034925979796 0.010440669868 0.0024235879091 0.0038394640968 0.0040748933104 0.0035610715976 
0.003150022501 0.0040372483357 0.0036643926633 0.0029865658174 0.0042077653093 0.0029791058292 0.0032812058063 0.0035836054759 0.0035720090014 
0.0025344995496 0.0034666188491 0.0030701790205 0.0037656676532 0.0028000933843 0.0023574104399 0.0027521282679 0.0031363840824 0.0032172454762 
0.004482294716 0.0025850929444 0.0035554794898 0.0024101013539 0.0034672628092 0.0024574577181 0.0045009866185 0.0033853357125 0.0028726226546 
0.0040558976584 0.0025142124667 0.0035914059925 0.0037056811112 0.0032623038973 0.0039395460942 0.0030000707548 0.0041212539198 0.0034507989925 