# vtk DataFile Version 4.2
vtk output
ASCII
DATASET POLYDATA
POINTS 18521 float
13.0095 -12.9775 1.95423 13.038 -12.9772 1.82926 13.0421 -13.1021 1.95462 
13.0629 -13.1022 1.82913 13.0925 -13.2279 1.82894 13.0791 -13.227 1.95457 
13.0528 -13.2267 2.07986 13.106 -13.3651 2.06752 13.0822 -13.478 2.331 
13.1254 -13.4748 2.20528 13.1259 -13.5993 2.33278 13.0642 -13.5997 2.45727 
13.0822 -13.7 2.43329 13.0062 -13.6922 2.57473 13.0024 -13.5848 2.5609 
12.9572 -13.6013 2.67663 12.9676 -13.4743 2.5784 12.921 -13.4743 2.70484 
12.916 -13.6009 2.80538 12.9426 -13.7008 2.72097 12.8931 -13.7002 2.84646 
12.9264 -13.7922 2.76671 12.8784 -13.792 2.89038 12.8451 -13.7162 2.95358 
12.8582 -13.6144 2.93891 12.7899 -13.7351 3.06796 12.8242 -13.7951 3.02289 
12.8233 -13.8645 3.05771 12.7366 -13.7491 3.20586 12.7744 -13.6008 3.07592 
12.7188 -13.6068 3.19381 12.7036 -13.7286 3.32736 12.6835 -13.6018 3.32749 
12.6935 -13.728 3.45377 12.6656 -13.5885 3.47356 12.6531 -13.6041 3.59479 
12.6059 -13.4971 3.56532 12.6259 -13.4385 3.46275 12.6584 -13.476 3.32734 
12.6192 -13.3535 3.3266 12.5575 -13.2171 3.4495 12.5682 -13.3533 3.51939 
12.5096 -13.2203 3.585 12.5238 -13.4253 3.63775 12.477 -13.339 3.689 
12.4923 -13.4375 3.70478 12.528 -13.5268 3.72485 12.4925 -13.4823 3.81827 
12.479 -13.416 3.78255 12.4834 -13.4023 3.89591 12.4615 -13.3219 3.80223 
12.4681 -13.3035 3.91026 12.4512 -13.2349 3.83718 12.4624 -13.226 3.70494 
12.4383 -13.1572 3.7986 12.4344 -13.096 3.71084 12.4731 -13.1005 3.58147 
12.5127 -13.1007 3.45452 12.4614 -12.977 3.45387 12.424 -12.9565 3.55346 
12.415 -12.8607 3.4581 12.4488 -12.8524 3.3283 12.4967 -12.9774 3.32806 
12.4892 -12.8523 3.2031 12.6192 -12.9781 2.95274 12.5804 -13.1015 3.20285 
12.6233 -13.1016 3.07838 12.6607 -13.3512 3.20238 12.7138 -13.3509 3.07912 
12.6934 -13.4761 3.2009 12.7549 -13.4943 3.0781 12.7695 -13.3517 2.95471 
12.8195 -13.4863 2.96545 12.8765 -13.4742 2.83116 12.8214 -13.3516 2.82928 
12.8689 -13.352 2.70375 12.9155 -13.3525 2.57772 12.8648 -13.2272 2.57824 
12.8194 -13.2359 2.70386 12.7673 -12.9834 2.58099 12.8244 -12.9785 2.45003 
12.9159 -13.2275 2.45362 12.876 -12.9775 2.32861 12.9671 -13.1025 2.20418 
12.9691 -13.3533 2.45194 13.0243 -13.477 2.45626 13.0213 -13.3523 2.32963 
13.0091 -13.1024 2.07943 12.9717 -12.9776 2.07911 12.9265 -12.9777 2.20388 
12.9427 -12.8516 2.07925 12.9854 -12.8518 1.9543 13.0049 -12.7267 1.82981 
13.0192 -12.852 1.82932 12.963 -12.7266 1.95433 12.9496 -12.3522 1.82994 
12.9901 -12.6015 1.83053 12.9399 -12.6016 1.95451 12.8916 -12.3521 1.95408 
12.8726 -12.2268 1.95431 12.934 -12.2269 1.82985 12.9127 -12.7266 2.0786 
12.8384 -12.8515 2.32936 12.8821 -12.602 2.07788 12.7999 -12.7271 2.32868 
12.7794 -12.8579 2.45609 12.7395 -12.7271 2.45277 12.7253 -12.8616 2.57774 
12.6432 -12.6189 2.59445 12.6707 -12.8525 2.70324 12.7219 -12.9883 2.70038 
12.621 -12.8526 2.82784 12.6305 -12.7316 2.70607 12.5813 -12.7273 2.82791 
12.5364 -12.7266 2.95392 12.4437 -12.7278 3.20265 12.4956 -12.6021 2.95322 
12.4482 -12.6024 3.07816 12.4046 -12.603 3.20228 12.4025 -12.7347 3.34159 
12.3699 -12.6037 3.33272 12.3674 -12.6924 3.44523 12.3488 -12.6124 3.46069 
12.3558 -12.7265 3.58605 12.3773 -12.7836 3.50724 12.3824 -12.8612 3.5857 
12.3753 -12.8782 3.69647 12.3702 -12.7947 3.71625 12.3549 -12.663 3.63019 
12.3815 -12.7642 3.75784 12.3786 -12.615 3.69918 12.3689 -12.5731 3.65362 
12.3945 -12.5453 3.6951 12.4002 -12.488 3.67351 12.3606 -12.5178 3.61297 
12.3979 -12.4197 3.63375 12.3547 -12.4541 3.56688 12.3645 -12.3087 3.51927 
12.3371 -12.336 3.44425 12.3461 -12.2418 3.46391 12.3257 -12.2735 3.38164 
12.3232 -12.1756 3.39295 12.3162 -12.2259 3.31661 12.3022 -12.1023 3.33429 
12.3381 -12.0886 3.43301 12.3128 -12.0237 3.38151 12.293 -12.0428 3.27535 
12.3 -12.1132 3.20886 12.2951 -12.027 3.15602 12.3302 -12.1031 3.08093 
12.3182 -12.1918 3.19275 12.3271 -12.2837 3.25553 12.3541 -12.232 3.09062 
12.3489 -12.3621 3.20812 12.3814 -12.3524 3.0772 12.3747 -12.4771 3.20403 
12.3486 -12.4571 3.30409 12.3324 -12.362 3.3351 12.3343 -12.4263 3.40975 
12.3384 -12.4763 3.47447 12.3452 -12.5927 3.57171 12.4116 -12.4776 3.07749 
12.4256 -12.3524 2.95278 12.4572 -12.4776 2.95273 12.4743 -12.3526 2.82782 
12.5078 -12.4772 2.8285 12.545 -12.6016 2.82881 12.5584 -12.4771 2.70323 
12.5953 -12.6037 2.70027 12.621 -12.5045 2.5705 12.5858 -12.3561 2.57206 
12.6633 -12.4312 2.4437 12.7446 -12.5898 2.36064 12.7971 -12.4601 2.1871 
12.6935 -12.3305 2.33383 12.763 -12.352 2.20283 12.9916 -11.6016 1.70369 
12.9842 -11.7269 1.70421 12.8388 -11.7265 1.95313 13.3333 -13.8783 1.81518 
13.4064 -13.9992 1.84521 13.3546 -13.9359 1.9278 13.5617 -14.1603 1.85115 
13.463 -14.0788 1.92603 13.4731 -14.057 1.7688 13.4227 -14.0344 1.98166 
12.8289 -11.4765 1.98045 12.9379 -11.3516 1.82837 12.9863 -11.4763 1.73172 
12.8635 -11.2382 1.96459 12.8142 -11.1011 2.07673 12.979 -11.1013 1.82789 
14.7776 -15.0041 2.05097 14.7593 -14.9704 1.71766 14.8965 -15.039 1.82866 
15.028 -15.1157 2.05092 15.0109 -15.0925 1.84534 15.1511 -15.1646 1.95385 
14.9032 -15.0739 2.23151 14.6516 -14.9424 1.98144 14.5265 -14.8749 1.92593 
14.6571 -14.9352 1.84157 13.4649 -14.0871 2.05137 13.413 -14.0214 2.11444 
13.4679 -14.0811 2.17703 13.4177 -14.0228 2.23769 13.4675 -14.0846 2.29925 
13.3905 -14.0353 2.3518 13.4588 -14.0897 2.44056 13.3746 -14.0417 2.45863 
13.3778 -14.0619 2.54266 13.2781 -14.014 2.45369 13.1928 -14.057 2.63609 
13.164 -14.0242 2.57382 13.1114 -14.024 2.64373 13.0857 -13.9641 2.57309 
13.0457 -13.9607 2.62818 13.0501 -13.9284 2.5914 12.9969 -13.9078 2.67171 
12.9924 -13.9572 2.72966 12.9622 -13.8592 2.6991 12.9069 -13.856 2.82787 
12.9855 -13.7918 2.63317 13.0213 -13.853 2.57204 13.0484 -13.7926 2.51474 
13.0993 -13.8667 2.45723 13.0941 -13.9152 2.51914 13.1438 -13.933 2.4522 
13.16 -13.8644 2.36292 13.2781 -13.9768 2.35458 13.2781 -13.9954 2.40413 
13.1423 -13.9843 2.51914 13.3322 -13.9791 2.26897 13.2781 -13.9642 2.32869 
13.2344 -13.9001 2.2974 13.2781 -13.8936 2.20369 13.2459 -13.8162 2.182 
13.1847 -13.8102 2.28758 13.1239 -13.7978 2.38257 13.1528 -13.7199 2.30645 
13.2109 -13.724 2.19916 13.1765 -13.5988 2.20669 13.2213 -13.6262 2.08085 
13.2543 -13.7333 2.09353 13.2781 -13.8062 2.07869 13.2781 -13.8518 2.12206 
13.3069 -13.8733 2.05606 13.335 -13.9259 2.13112 13.3397 -13.9533 2.20364 
14.5268 -14.8667 1.80096 14.2777 -14.7391 2.17581 14.2933 -14.7384 1.93715 
14.3903 -14.7921 1.84046 14.0263 -14.5289 1.70425 13.9072 -14.4444 1.95316 
13.9134 -14.4382 1.8279 13.7777 -14.35 1.95325 13.6175 -14.2193 1.9029 
13.6479 -14.2228 1.80122 13.5395 -14.1613 1.98001 13.8334 -14.3733 1.80057 
13.1639 -13.4589 1.97092 13.2131 -13.572 1.95434 13.1682 -13.503 2.07984 
13.1227 -13.3533 1.92611 13.2487 -13.6812 1.9499 12.9561 -10.8517 1.95297 
12.987 -10.7263 1.95254 13.0422 -10.8517 1.82797 13.0105 -10.9768 1.82835 
13.1008 -10.3518 1.95083 13.195 -10.3447 1.82369 13.1483 -10.4767 1.82818 
13.1468 -10.2266 1.95255 13.2781 -13.7775 1.95369 12.9144 -13.9235 2.8907 
12.8604 -13.8564 2.94983 12.8688 -13.961 3.07555 12.7755 -13.886 3.23761 
12.8507 -13.9828 3.18372 12.9139 -14.0146 3.07501 12.9096 -13.9771 2.97215 
12.9642 -14.0407 3.01115 12.9666 -14.0096 2.89766 13.0449 -14.0838 2.93064 
13.0452 -14.1055 3.05327 13.1459 -14.1357 2.94806 13.1129 -14.1008 2.84628 
13.0323 -14.0457 2.81529 13.0862 -14.0476 2.73783 13.0297 -14.0114 2.73705 
13.1604 -14.071 2.68806 13.1845 -14.1003 2.76125 13.3671 -14.0919 2.64152 
13.39 -14.1335 2.72527 13.4619 -14.1708 2.69177 13.4502 -14.226 2.82028 
13.3555 -14.1451 2.7719 13.2781 -14.148 2.82869 13.3574 -14.1861 2.87076 
13.2781 -14.1859 2.95369 13.2781 -14.2139 3.07869 13.3536 -14.2619 3.0454 
13.3893 -14.3354 3.1266 13.344 -14.3367 3.22495 13.2781 -14.2569 3.20369 
13.1574 -14.1838 3.20719 13.1696 -14.2282 3.33918 13.0276 -14.1982 3.45172 
12.9372 -14.096 3.3123 13.0288 -14.1221 3.20095 12.8989 -14.0526 3.25911 
12.8623 -14.0487 3.38665 12.8077 -13.9655 3.30385 12.7885 -13.9752 3.4509 
12.7433 -13.8598 3.324 12.7279 -13.8563 3.45402 12.7846 -13.9829 3.57885 
12.7234 -13.8561 3.58027 12.7782 -13.9827 3.70247 12.7068 -13.8395 3.71398 
12.7645 -13.9809 3.8299 12.6579 -13.7847 3.83101 12.6699 -13.7077 3.69816 
12.605 -13.6776 3.84187 12.6095 -13.7587 3.95178 12.581 -13.665 3.97694 
12.5774 -13.6204 3.8364 12.5531 -13.5702 3.9568 12.5724 -13.5968 4.07214 
12.5407 -13.5165 4.02025 12.5161 -13.4974 3.92812 12.5273 -13.5406 3.85442 
12.486 -13.3676 3.96583 12.5311 -13.4379 4.08709 12.5566 -13.5331 4.10188 
12.5632 -13.47 4.14237 12.5699 -13.4109 4.13286 12.536 -13.3588 4.12438 
12.5064 -13.3573 4.06067 12.5182 -13.2891 4.09869 12.4951 -13.2831 4.04159 
12.5047 -13.2409 4.06708 12.4631 -13.244 3.9436 12.4785 -13.3037 3.97874 
12.4614 -13.1683 3.96754 12.4429 -13.1671 3.88607 12.4589 -13.1004 3.9641 
12.436 -13.1043 3.88502 12.4691 -13.0373 3.95831 12.4755 -12.9814 3.94604 
12.4171 -13.0693 3.79784 12.4057 -13.0118 3.83243 12.3935 -12.9669 3.7502 
12.4117 -13.0316 3.71919 12.3899 -12.9315 3.66084 12.3871 -12.9243 3.78893 
12.4031 -12.9538 3.85078 12.4469 -12.972 3.90467 12.4659 -12.9172 3.8868 
12.5104 -12.9267 3.93856 12.5327 -12.8633 3.92429 12.5854 -12.9355 3.96244 
12.6702 -12.9082 3.94922 12.6159 -12.7958 3.89275 12.5153 -12.8016 3.88733 
12.4546 -12.8515 3.87605 12.462 -12.793 3.85274 12.3956 -12.8557 3.83365 
12.4026 -12.9053 3.84807 12.4023 -12.7859 3.81772 12.4571 -12.7278 3.83079 
12.4042 -12.7179 3.78776 12.5397 -12.6516 3.82669 12.518 -12.5813 3.78801 
12.6333 -12.624 3.81938 12.5296 -12.4695 3.74281 12.469 -12.433 3.69446 
12.4437 -12.4911 3.71043 12.4121 -12.596 3.73929 12.539 -12.3783 3.70648 
12.4728 -12.3199 3.64034 12.4087 -12.3128 3.59289 12.4499 -12.2284 3.59206 
12.3903 -12.2349 3.53501 12.4189 -12.1252 3.53832 12.3632 -12.1544 3.48299 
12.3853 -12.0563 3.49521 12.3529 -11.9741 3.44633 12.411 -11.9623 3.49936 
12.4116 -11.8711 3.48007 12.4489 -12.0219 3.53287 12.5329 -12.0034 3.58026 
12.517 -12.2266 3.63665 12.67 -11.9769 3.62569 12.6601 -11.8415 3.58571 
[...]
CELL_DATA 37038
FIELD FieldData 1
Area 1 37038 double
0.0082450602361 0.0081534597681 0.0083225546049 0.0094048727031 0.020661474244 0.0082376052574 0.008546843446 0.0088724855169 0.0069825544856 
0.0079449203828 0.0065844331167 0.0065985218176 0.0072881948082 0.0087118908668 0.0087538382741 0.0067352167412 0.0067232559524 0.0061791844867 
0.0060951025332 0.0050263794773 0.0058358307657 0.0062958294251 0.0043952315156 0.0029360453049 0.0099292759141 0.010056163675 0.0093686548219 
0.0091223001898 0.0088538004332 0.0081381240913 0.010283183623 0.0088199338894 0.0070355774516 0.0081310694475 0.010880136588 0.0088153644442 
0.01537856282 0.008009017763 0.0099799964452 0.011592289789 0.0087603682841 0.0036820060981 0.0036281034411 0.0051029531675 0.0030730043933 
0.0040678829319 0.0053110791607 0.0052984043465 0.0044455733447 0.0059521345191 0.0063454412177 0.0051029690721 0.0060446122479 0.0089104955341 
0.0080749007173 0.0083140110795 0.0088480138411 0.0083229122896 0.0063967145835 0.0083981796857 0.0086995482431 0.0087496944755 0.026343138328 
0.025737774546 0.017302177045 0.016117119391 0.0086546639803 0.017173619935 0.017116477905 0.017645782724 0.0086149464335 0.0084443334372 
0.0084032422405 0.0099905080418 0.0089148067965 0.01008852539 0.009356506639 0.00703868177 0.010112564835 0.0097589174942 0.0096714628032 
0.0098127940962 0.0089380637767 0.008835319417 0.0088552513611 0.0089957505838 0.0084241613781 0.017527650922 0.018619505326 0.017737439366 
0.017386151466 0.026308771418 0.018322820569 0.0092027472026 0.0089478618886 0.0090059728529 0.0089420986635 0.0094808248217 0.017826092988 
0.017501353928 0.017090941288 0.0085417166849 0.008664108624 0.0085538198886 0.0085100307393 0.0083378526896 0.0081608951809 0.008341157712 
0.016864241146 0.0087725487241 0.008499146676 0.0085866201179 0.017103244618 0.017955627444 0.017334061826 0.017947943712 0.0090853517226 
0.0089189230105 0.0093875292166 0.0090869841075 0.018515795923 0.017050769348 0.009708597405 0.01943998755 0.0089255007029 0.0084682722538 
0.0085505394325 0.0087412196127 0.026153531844 0.017481403017 0.017305031866 0.0087755947698 0.0085667760935 0.0094801504498 0.0091064072847 
0.0091313568846 0.0073943436199 0.0053673940651 0.006071977791 0.0055108969925 0.005443167399 0.0053392344929 0.0082129960855 0.0076401757638 
0.0061435510917 0.0056675950759 0.0041707097985 0.0068323658084 0.0026490750981 0.0016888379617 0.0016728052819 0.002643407124 0.0030841556798 
0.0033691110303 0.0065495858749 0.0064617030947 0.0034685060345 0.003660538723 0.003991651031 0.003478538749 0.0043860941818 0.0042768006438 
0.0038130048811 0.0037837637966 0.004086614414 0.0047402276931 0.0055254839705 0.0053468000008 0.0052756148578 0.0046681173422 0.0063347689716 
0.0079436280106 0.008365411616 0.0079739992473 0.0059763575276 0.006135493393 0.0046103174662 0.01073241794 0.0047625861068 0.0074407637947 
0.0061816305236 0.0030808134888 0.0044836562273 0.0079405286933 0.0084695329646 0.0085009052487 0.0084767360998 0.0085433279205 0.008598999771 
0.0086231418655 0.0086179398771 0.0086910105591 0.0086492107531 0.008725326168 0.0090170882543 0.0089613114666 0.0093492989675 0.00696823082 
0.0076299568108 0.010913971932 0.010678183459 0.014944057085 0.020944644177 0.021899030781 0.016554498706 0.0078816951402 0.015473714127 
0.032903516546 0.0099145447894 0.0180806355 0.0070982710478 0.01043353799 0.0071520819687 0.018432633322 0.020684800506 0.023908797386 
0.014856245796 0.027072928301 0.010001711956 0.0039680410309 0.0050465569132 0.0051783750858 0.0048660462914 0.0047747031142 0.0049738837835 
0.0063596357912 0.005123420232 0.0042603626558 0.0043008477217 0.013770847844 0.0058840790522 0.0030105352296 0.0038066580891 0.0029933813774 
0.0013090738321 0.0020666673647 0.0032081320884 0.0024828300752 0.0074370455578 0.0045941662644 0.0049244718787 0.0045307030696 0.0040792572584 
0.0046717969007 0.0042990643838 0.003508396255 0.0028556696441 0.0042245671993 0.0089315802484 0.0040732871186 0.0065633472106 0.0038373392421 
0.003320657343 0.0055504595937 0.0009648752018 0.00089179298914 0.0042708726456 0.004448869676 0.0061742506892 0.0044430916371 0.0037066576408 
0.0049771316045 0.0065144619345 0.0073244741976 0.0055671890334 0.0077640803832 0.008357264192 0.006435971668 0.0053363533601 0.0041707807355 
0.0023662822823 0.0021693557099 0.0032723810648 0.0033325384496 0.00373188804 0.0029824725076 0.003482725562 0.0047510791827 0.012383296199 
0.00676939806 0.0091401573796 0.012601022374 0.0090444721517 0.011298341969 0.0077092290141 0.01832662081 0.0087074384035 0.0071175669803 
0.0080530646245 0.007996793256 0.0085113955163 0.0074026372998 0.010062059059 0.0097037062377 0.0096918291957 0.010698096942 0.010266974415 
0.007151030494 0.0048811642137 0.0050075063257 0.0077423142038 0.0087022971833 0.0086628008137 0.0082674742353 0.0056837600769 0.0030820944454 
0.0049324383704 0.0054245412348 0.003934979268 0.0031000031866 0.0027042229237 0.0055743779841 0.006729548045 0.0076838309862 0.0076021570088 
0.0047927701673 0.0085512853917 0.0061646675096 0.010014669087 0.0070417088546 0.0039140372302 0.0036839889401 0.0038298122255 0.0044474979076 
0.005955359747 0.0061396803919 0.0069635301261 0.0054627350426 0.0052862784216 0.0047250838295 0.0027725019061 0.0033510082649 0.0035270187704 
0.0037632504165 0.0019359455094 0.01179421272 0.010053163983 0.0042133099435 0.0059516859288 0.0039539810866 0.00095221936713 0.0043168603899 
0.0054190485464 0.0091459888779 0.0089984247082 0.0059511969807 0.005210232872 0.0092871284458 0.0062855518661 0.0092309247299 0.0096336318149 
0.011404779988 0.024269230519 0.008310805702 0.0057234126435 0.0045189918306 0.0075412088307 0.0075449494015 0.0091834636384 0.0086963164053 
0.0089478399932 0.0085571812216 0.0088888132415 0.0087077437445 0.01058672942 0.01019241216 0.013160813935 0.0088156020096 0.0087064572806 
0.0072271236378 0.0064495363136 0.0043810652221 0.0065182679686 0.0054149748943 0.0041736229935 0.0034076168154 0.0036589861074 0.0033114279987 
0.0067321835772 0.004094922097 0.0075525192221 0.0039127310843 0.0026838190139 0.001850698912 0.0020586244907 0.0028346239145 0.0024337849903 
0.0022212295763 0.0013812153869 0.0027078533024 0.0023398215124 0.0020924412754 0.0022377724616 0.0030815496037 0.0049338049763 0.0031891439165 
0.0028351131962 0.0026042428005 0.0026447967481 0.0025970530552 0.0067843463053 0.0039540153277 0.0039643380956 0.0032145616856 0.0032334048032 
0.0028525942888 0.0024554513165 0.010246265277 0.0051243401067 0.0035534547476 0.0031002699036 0.0029117560813 0.0026703606707 0.0021193867586 
0.0021853536722 0.0021049782614 0.0020696244699 0.0023613784456 0.0026930291022 0.0042605240627 0.0072577896072 0.0036474146797 0.0028248775438 
0.0019803410003 0.0023036068366 0.0018533919887 0.002349260838 0.0016687915736 0.0055076053125 0.0038201168097 0.0024806362342 0.0022750163514 
0.0023861431902 0.003472905322 0.0064753133239 0.004063336795 0.0072889112029 0.0043844143691 0.0039616166538 0.0018595596116 0.006423771156 
0.0025320647062 0.0035711239244 0.0048147181727 0.0054763359572 0.0044904254179 0.0036236823466 0.0035948244887 0.0032792863711 0.0045087699476 
0.0040430213945 0.0035763001656 0.0035065144358 0.0034846851211 0.0041577501259 0.0036123701891 0.0037062550198 0.002024697118 0.0079305280862 
0.011245604719 0.01671477785 0.010387952205 0.016288973401 0.010028320103 0.010468879681 0.0085772308293 0.0087899269852 0.0067333710014 
0.0071449777876 0.0086954821864 0.0073395824686 0.0059983822318 0.0077705062993 0.0087566800342 0.011515269916 0.019694061648 0.015241269461 
0.0061696695949 0.0085446075219 0.010854545598 0.010261000077 0.0092699160701 0.012831776665 0.018970425713 0.0089050095944 0.0059692085293 
0.0047921635571 0.0052672513767 0.0031070702244 0.0047674955849 0.0038869300491 0.002702988532 0.0032318673183 0.0047475135998 0.0043435171005 
0.0032246307787 0.0043086806311 0.0041024066231 0.0029619900265 0.003388588538 0.0025671254833 0.005178529707 0.0049864015088 0.0065117338245 
0.0067077839669 0.0084754405847 0.0086687187168 0.0089829841433 0.0092500481637 0.0085073390012 0.0084758825183 0.008593182301 0.0085927219557 
0.0086449421599 0.0086389557547 0.0087025849323 0.0093995829474 0.0096894743865 0.0094424448239 0.021495157814 0.0085595790276 0.0082753427437 
0.0065521393352 0.0066301012474 0.017993107693 0.016746419967 0.0080359318807 0.010522759644 0.0095586754077 0.0091878058159 0.0097342245646 
0.010086677745 0.011894994243 0.0090070665547 0.0088607291544 0.0089005143252 0.0088980348301 0.0090386185049 0.009031880336 0.0090529221218 
0.0089165497047 0.0071962701982 0.015199776654 0.017581583913 0.017524675351 0.017543927222 0.008634149141 0.0086975749661 0.0085839566618 
0.0086407840149 0.0085357126643 0.0085527931291 0.0086028518901 0.0086636613744 0.0086374060396 0.0087229053047 0.0087267827869 0.0087349258468 
0.0094007221957 0.0090107157309 0.0087102802158 0.0087404526832 0.0087844292822 0.0087397082603 0.0088687281504 0.0091231613849 0.01544450985 
0.0091994086612 0.0038012033108 0.0042215494637 0.0085897729134 0.0063473013361 0.0036101066795 0.0047620181728 0.0046443341125 0.0045154755132 
0.0073109477981 0.0062187389518 0.0030043902474 0.0023003789719 0.0032858505032 0.0036354349277 0.0039384303273 0.0037487350236 0.0035539515526 
0.0030355958586 0.004467025719 0.0048027822891 0.0047373269511 0.004794142202 0.0039191083973 0.0034673355211 0.0036267956851 0.0029209119518 
0.0038719851431 0.0049429930668 0.0077127613601 0.0074281417419 0.0082695438976 0.0063959150081 0.0064671884024 0.0039256523052 0.0044278002253 
0.0058741418526 0.0042514015423 0.008127337742 0.0069685015643 0.0067690029662 0.0067521615558 0.0037757235337 0.0039002018933 0.0046562885121 
0.0046870326761 0.0038873884303 0.0073314018202 0.0040680126031 0.006117964602 0.0038541069473 0.0030679809677 0.0024958296131 0.0062717577908 
0.0028390894383 0.0028577243057 0.0050710431951 0.003268104574 0.0036785192905 0.00316385203 0.0025995239024 0.003478347899 0.0064096646414 
0.0087006537884 0.0078930048714 0.0050633434966 0.004696889539 0.0048375766115 0.0084306547471 0.0037610266859 0.0034830822403 0.0036508114378 
0.0034722221547 0.0035783089883 0.0038062133845 0.002330597482 0.0025853183851 0.0027897967063 0.0027240969391 0.0031023020842 0.0037332352212 
0.0032746263467 0.0025103506845 0.0078897045944 0.0072625158154 0.0067876336989 0.012128285161 0.016447784775 0.013701356979 0.0099014131841 
0.0046072979663 0.0036952467036 0.0058807517231 0.0071689393096 0.0071632516501 0.0082566467264 0.0082134292048 0.0088831627165 0.0089851873384 
0.019668971357 0.037958884883 0.017664160953 0.023488773425 0.034719636331 0.015200267376 0.0078089470175 0.0098456779446 0.010522370213 
0.0097622399182 0.0091516785888 0.0091966794973 0.0091737606374 0.0091701665503 0.029909680905 0.028655549325 0.011276501674 0.020042873687 
0.018002486315 0.0055386414704 0.012233627289 0.010455387636 0.0091808532056 0.0084469532911 0.0091442209961 0.01713361888 0.017126287975 
0.017097014972 0.0078526814259 0.0080784597479 0.0075250964909 0.0075430549932 0.01625772587 0.0087423705125 0.0088629698727 0.0089850224172 
0.020292812218 0.019586372943 0.0091861491791 0.0098071350925 0.032026133752 0.034489267056 0.062996429343 0.016051040563 0.010665652846 
0.010553789132 0.0049402020218 0.00809084681 0.0079145959333 0.0065838296723 0.0078997702324 0.0078773470419 0.0078792903499 0.030485204353 
0.0062740068059 0.004593652393 0.0047639267353 0.0049602723521 0.004840881915 0.0049335474264 0.0048033217374 0.0062714238831 0.0060043463226 
0.0036486870448 0.0040970572174 0.010153538363 0.018588932887 0.010474763249 0.019327148969 0.018308394492 0.023318481904 0.0077657421673 
0.0078211017284 0.0098392562287 0.018994450713 0.021060514701 0.029400041009 0.014320163198 0.0091495877204 0.012315042301 0.010268939148 
0.011282223291 0.01300242207 0.017299882454 0.018393641134 0.010323248925 0.012114380617 0.0085039154811 0.0094906781672 0.0083526991406 
0.010642085916 0.010898110956 0.0055549009394 0.025841390249 0.0093097959423 0.0071902184262 0.0090555696275 0.014545086369 0.013468168641 
0.0058242774152 0.006190874689 0.0039229544008 0.0055335566937 0.010054217262 0.0032997900406 0.0047506346638 0.0037266878553 0.013903074919 
0.019953463747 0.019824347255 0.013278789915 0.014834309833 0.011231648917 0.008057301248 0.015073218388 0.014988989947 0.013070191849 
0.0050041004484 0.0021805574516 0.004511382692 0.005829527017 0.010137226924 0.020005277022 0.014609054546 0.0021897374683 0.0031656254062 
0.012611082693 0.0060578141965 0.012063184076 0.018348652536 0.0091539542067 0.010798572629 0.0098922072776 0.0076098971106 0.0080857785051 
0.010287395605 0.0099900388571 0.017561089377 0.0069012781781 0.0095256321929 0.0072908483383 0.0081856438161 0.0089985364771 0.01033033484 
0.010293389573 0.011366725271 0.0066058863986 0.0057595000665 0.011189640697 0.0074531000395 0.0043305839214 0.004302669607 0.0041672647772 
0.003565291827 0.0043090126031 0.0040277947795 0.0070492249297 0.0042126592597 0.0025143485135 0.0034336633931 0.0028700238288 0.0027522141267 
0.0026079164989 0.0020544118608 0.0021093534402 0.0018013663074 0.0018942857354 0.0018498413108 0.0022992940933 0.0025399426347 0.0068609724135 
0.0078164390666 0.0036039149366 0.0062701385997 0.0050486770221 0.0040837317961 0.0056773500833 0.010569700083 0.0099676041757 0.0085610206812 
0.0066255327988 0.0072607590162 0.0043442990154 0.0063617657518 0.0078432124644 0.0048842230607 0.0041746182418 0.0052362757591 0.0062038773967 
0.006719641645 0.010503396442 0.016465568949 0.0087878485635 0.0085487992561 0.009088900752 0.0086998660171 0.011156095089 0.017807585171 
0.012753623423 0.0032751498042 0.0030392634801 0.0023219752978 0.0032449455868 0.0032952500307 0.0036803222944 0.0019335254725 0.001844952859 
0.0025857826141 0.0021755091047 0.0020650927201 0.002324167879 0.0023200981722 0.0026981019851 0.0025161195643 0.0030686308174 0.0026059568641 
0.0024032784071 0.0028682017508 0.0025664576864 0.0035361988836 0.0047988145572 0.0067581903022 0.0035349963014 0.0079066802681 0.010343047766 
0.0096059980557 0.0098840794346 0.010223172658 0.0069440887119 0.0079973698987 0.0069707004474 0.0062572001572 0.0067798277018 0.0071085854984 
0.0072240885685 0.0072276632991 0.0077351745656 0.0094485895589 0.010846287766 0.010192892555 0.013607569769 0.014585386116 0.02038558306 
0.015781632991 0.0088593287539 0.0087642608153 0.0095209161711 0.010263131982 0.0069541848558 0.0078144205068 0.0083311424808 0.0077317810292 
0.0067901631781 0.0085523398869 0.0071722792507 0.0053440250277 0.0042964109546 0.0076196932042 0.0091223215551 0.0078361321943 0.0073870347581 
0.0070337377183 0.0063587601019 0.0060886919725 0.0056624928108 0.02768423704 0.018915057395 0.017856823556 0.017123968544 0.0093317566593 
0.0077798798932 0.013544288056 0.010837682008 0.003575622915 0.0050367925015 0.0068541067584 0.006779905196 0.0058736596791 0.0080744886653 
0.00686677367 0.010425169453 0.0052112823722 0.0066760918295 0.0048923756286 0.0083338450813 0.010965907433 0.0080649600453 0.007937871119 
0.0071140765646 0.0082193470461 0.0060543765803 0.0052544276849 0.0064240217483 0.0084731377069 0.010214565398 0.0063162336927 0.0074845035994 
0.011027713978 0.010172795665 0.0087054276962 0.0086307048022 0.0076165479144 0.008993126467 0.0088868259602 0.0082453607226 0.0082113076781 
0.0087681289234 0.017475985158 0.01344789559 0.015603204269 0.0073684295819 0.0083831844337 0.009604035393 0.0079844241311 0.0078076692398 
0.01466478923 0.017361239343 0.0095327372881 0.011006607924 0.0069256918533 0.015500249746 0.0074187209954 0.010106656198 0.0081425015722 
0.0067595951392 0.0069232084252 0.0032397334856 0.0028725145633 0.0018985700324 0.0019634866663 0.0030737198974 0.002961204449 0.0035646714862 
0.0025640639709 0.0059378006566 0.0020109871212 0.0022466161653 0.0042596635052 0.003657349611 0.002679024393 0.0065736353736 0.0039622713603 
0.0041443532383 0.0037054049305 0.0093191162238 0.0057046791962 0.0076385750332 0.0083940177121 0.0090736105305 0.0090860494009 0.010481714121 
0.0098585120088 0.01472993395 0.010115468221 0.0093777437657 0.0094101037514 0.019221447443 0.019171758029 0.01903544179 0.038051541911 
0.022145144965 0.017684537486 0.027662246274 0.0088465359909 0.0083275866977 0.013450419905 0.019823657487 0.019198376856 0.020598103381 
0.018151807401 0.0057729157352 0.0053362606118 0.0037923365942 0.0031130291891 0.0051595406756 0.01357151481 0.022811527837 0.015840757509 
0.0080821983096 0.0080227041753 0.0080647068 0.0094506170423 0.0063728587054 0.0081255431471 0.0039896537106 0.0057555298703 0.031583224015 
0.015862022922 0.0086195487083 0.0090275856339 0.0089951748679 0.0098161680137 0.010159670939 0.010893198809 0.010004296285 0.010584125741 
0.010979587829 0.0095305300036 0.016672235451 0.012617798955 0.0087494262409 0.0088253854704 0.0087978779386 0.0095502786371 0.0094591782469 
0.010851954609 0.014933152214 0.0098056973697 0.0077188192197 0.0067821285755 0.023793062011 0.0079282819108 0.0079310556281 0.047443812864 
0.031686243716 0.019297963108 0.04748912684 0.0092212259704 0.016205536911 0.016859011862 0.0089352836703 0.0082824719897 0.006941082007 
0.0079754100605 0.0079795426872 0.0079564273428 0.0079458436048 0.0079342169249 0.0079132360768 0.019571508284 0.027644254879 0.017944934483 
0.017464458184 0.018463568327 0.025447454039 0.036558266192 0.020508780521 0.0075291897416 0.026767673013 0.024870913224 0.023313631362 
0.0076543914818 0.0074389276232 0.0076020027591 0.0089405026327 0.0096985365415 0.0081266241513 0.0081306727218 0.0081363226327 0.008110955717 
0.00806829583 0.016064010041 0.016114905351 0.016040777135 0.024149631149 0.039894229104 0.015992186189 0.015941611275 0.0080659431979 
0.031818913619 0.016035030994 0.0080088669633 0.016065728355 0.03197887012 0.0080423491569 0.0083565267583 0.008037656374 0.007780289266 
0.015491012321 0.016219042471 0.016096136565 0.016107966201 0.0080552370128 0.0080976335292 0.0080555133952 0.0081835244083 0.0081809656027 
0.0081975628839 0.008294739466 0.008281054383 0.016754148743 0.025306048202 0.016689404009 0.016542636048 0.024546692343 0.0083576696178 
0.0081857040418 0.0081190707228 0.016173531365 0.0081032893878 0.016248179563 0.016283871896 0.016170609592 0.0081651586841 0.0081737639235 
0.008187674179 0.0082911237926 0.0082944170891 0.0083307858603 0.0082106077271 0.0083216392961 0.0083326008973 0.0082014869445 0.0083231106365 
0.0083467655345 0.0082247066428 0.016572654662 0.016593488285 0.0084371172385 0.0085170269905 0.0086171923326 0.0085001171594 0.008962151298 
0.0086669523322 0.0080994648812 0.0086097967238 0.0091317102606 0.0085758883657 0.0083996281187 0.0083285252512 0.0085644068147 0.0082930301545 
0.0083213436124 0.0084292424253 0.008576607972 0.0086059838388 0.0085601555061 0.0083205779615 0.0085822299161 0.0083297252091 0.0083390980275 
0.0082666656237 0.016547540949 0.016477830527 0.0098499694286 0.027126511606 0.024597068983 0.026464749683 0.010596037519 0.01917718275 
0.013626554502 0.023844747914 0.016772193243 0.025969210224 0.010925695769 0.021955475779 0.0084256001524 0.0084300439699 0.024354071678 
0.0088619619252 0.015695396117 0.0084819112924 0.017632937792 0.018387379823 0.018704260491 0.035348054864 0.013197674984 0.011735285937 
0.017061966809 0.025570109154 0.017467436399 0.017515626051 0.0089326905557 0.0088003148155 0.0088727550978 0.008767894322 0.0089055410026 
0.0089122781917 0.0087991216662 0.0088929359945 0.0089594771472 0.0091785237091 0.0093630939393 0.0090919664958 0.010696199715 0.010017229904 
0.015017532224 0.010268733236 0.0092851875718 0.0096833153027 0.009602096435 0.0085795669608 0.035119689098 0.01803138392 0.0094640863721 
0.018089008873 0.054445387284 0.021479597845 0.013919451015 0.018821679714 0.011259712956 0.017570320097 0.015326491366 0.0098453293346 